                               Psi4 1.3.2 release

  ==> Input File <==

--------------------------------------------------------------------------
import numpy as np
set {scf_type pk
basis cc-pvdz
d_convergence 10
gdma_switch   0
gdma_limit    0
gdma_origin   [ 0.0,  0.0,  0.0 ]
}
molecule test {
    units Angstrom
    0 1
    --
    0 1
    C                2.846276252992959     0.806628721290077    -0.547299188344115
    C                4.142276252992958     0.035628721290077    -0.676299188344115
    C                3.020276252992959     2.190628721290077     0.037700811655885
    H                2.370276252992959     0.870628721290077    -1.524299188344115
    H                2.167276252992958     0.260628721290077     0.113700811655885
    H                4.621276252992958     0.013628721290077     0.306700811655885
    H                3.456276252992958     2.102628721290077     1.033700811655885
    H                3.699276252992958     2.780628721290077    -0.579299188344115
    H                4.807936252992958     0.526588721290077    -1.401449188344115
    H                3.840366252992959    -0.987815278709923    -0.943539188344115
    H                2.058226252992958     2.717478721290077     0.120700811655885
    C               -2.987723747007042     0.513628721290077     2.389700811655886
    C               -0.622723747007041    -0.808371278709923    -0.903299188344115
    C               -1.390723747007041     0.341628721290077    -1.042299188344115
    C               -0.601723747007042    -1.560371278709923     0.281700811655885
    C               -2.145723747007042     0.748628721290077     0.048700811655885
    C               -1.383723747007042    -1.147371278709923     1.363700811655886
    C               -2.162723747007042     0.000628721290077     1.233700811655885
    O                0.172276252992958    -1.251371278709923    -1.900299188344115
    H               -1.416723747007042     0.906628721290077    -1.956299188344115
    H                0.641276252992959    -2.046371278709923    -1.629299188344115
    H                0.007276252992958    -2.450371278709923     0.370700811655885
    H               -2.752723747007042     1.643628721290077    -0.024299188344115
    H               -1.386723747007042    -1.714371278709923     2.283700811655886
    H               -3.323723747007042    -0.312371278709923     3.018700811655886
    H               -3.869723747007042     1.004628721290077     1.979700811655885
    H               -2.338983747007041     1.193398721290077     2.961580811655886

}
e, wfn = energy('scf', return_wfn=True)
gdma(wfn)
dmavals = variable('DMA DISTRIBUTED MULTIPOLES')
charges = np.array(dmavals)
print(charges)
np.save('SSI-004ARG-095TYR-1-dimer.npy', np.array(charges))--------------------------------------------------------------------------

*** tstart() called on ds3
*** at Mon Apr 27 07:22:56 2020

   => Loading Basis Set <=

    Name: CC-PVDZ
    Role: ORBITAL
    Keyword: BASIS
    atoms 1-3, 12-18  entry C          line   138 file /theoryfs2/ds/metcalf/miniconda2/envs/tf2gpu/share/psi4/basis/cc-pvdz.gbs
    atoms 4-11, 20-27 entry H          line    22 file /theoryfs2/ds/metcalf/miniconda2/envs/tf2gpu/share/psi4/basis/cc-pvdz.gbs
    atoms 19          entry O          line   198 file /theoryfs2/ds/metcalf/miniconda2/envs/tf2gpu/share/psi4/basis/cc-pvdz.gbs

         ---------------------------------------------------------
                                   SCF
               by Justin Turney, Rob Parrish, Andy Simmonett
                          and Daniel G. A. Smith
                              RHF Reference
                        1 Threads,    500 MiB Core
         ---------------------------------------------------------

  ==> Geometry <==

    Molecular point group: c1
    Full point group: C1

    Geometry (in Angstrom), charge = 0, multiplicity = 1:

       Center              X                  Y                   Z               Mass
    ------------   -----------------  -----------------  -----------------  -----------------
         C            2.846276252993     0.806628721290    -0.547299188344    12.000000000000
         C            4.142276252993     0.035628721290    -0.676299188344    12.000000000000
         C            3.020276252993     2.190628721290     0.037700811656    12.000000000000
         H            2.370276252993     0.870628721290    -1.524299188344     1.007825032230
         H            2.167276252993     0.260628721290     0.113700811656     1.007825032230
         H            4.621276252993     0.013628721290     0.306700811656     1.007825032230
         H            3.456276252993     2.102628721290     1.033700811656     1.007825032230
         H            3.699276252993     2.780628721290    -0.579299188344     1.007825032230
         H            4.807936252993     0.526588721290    -1.401449188344     1.007825032230
         H            3.840366252993    -0.987815278710    -0.943539188344     1.007825032230
         H            2.058226252993     2.717478721290     0.120700811656     1.007825032230
         C           -2.987723747007     0.513628721290     2.389700811656    12.000000000000
         C           -0.622723747007    -0.808371278710    -0.903299188344    12.000000000000
         C           -1.390723747007     0.341628721290    -1.042299188344    12.000000000000
         C           -0.601723747007    -1.560371278710     0.281700811656    12.000000000000
         C           -2.145723747007     0.748628721290     0.048700811656    12.000000000000
         C           -1.383723747007    -1.147371278710     1.363700811656    12.000000000000
         C           -2.162723747007     0.000628721290     1.233700811656    12.000000000000
         O            0.172276252993    -1.251371278710    -1.900299188344    15.994914619570
         H           -1.416723747007     0.906628721290    -1.956299188344     1.007825032230
         H            0.641276252993    -2.046371278710    -1.629299188344     1.007825032230
         H            0.007276252993    -2.450371278710     0.370700811656     1.007825032230
         H           -2.752723747007     1.643628721290    -0.024299188344     1.007825032230
         H           -1.386723747007    -1.714371278710     2.283700811656     1.007825032230
         H           -3.323723747007    -0.312371278710     3.018700811656     1.007825032230
         H           -3.869723747007     1.004628721290     1.979700811656     1.007825032230
         H           -2.338983747007     1.193398721290     2.961580811656     1.007825032230

  Running in c1 symmetry.

  Rotational constants: A =      0.04760  B =      0.01642  C =      0.01463 [cm^-1]
  Rotational constants: A =   1427.11971  B =    492.13920  C =    438.45784 [MHz]
  Nuclear repulsion =  579.922357099589135

  Charge       = 0
  Multiplicity = 1
  Electrons    = 84
  Nalpha       = 42
  Nbeta        = 42

  ==> Algorithm <==

  SCF Algorithm Type is PK.
  DIIS enabled.
  MOM disabled.
  Fractional occupation disabled.
  Guess Type is SAD.
  Energy threshold   = 1.00e-06
  Density threshold  = 1.00e-10
  Integral threshold = 0.00e+00

  ==> Primary Basis <==

  Basis Set: CC-PVDZ
    Blend: CC-PVDZ
    Number of shells: 114
    Number of basis function: 234
    Number of Cartesian functions: 245
    Spherical Harmonics?: true
    Max angular momentum: 2

  ==> Pre-Iterations <==

   -------------------------------------------------------
    Irrep   Nso     Nmo     Nalpha   Nbeta   Ndocc  Nsocc
   -------------------------------------------------------
     A        234     234       0       0       0       0
   -------------------------------------------------------
    Total     234     234      42      42      42       0
   -------------------------------------------------------

  ==> Integral Setup <==

  Using integral reordering PK algorithm.
  Sizing the integral batches needed.
  Building batch lookup table.
   Calculation information:
      Number of atoms:                  27
      Number of AO shells:             114
      Number of primitives:            322
      Number of atomic orbitals:       245
      Number of basis functions:       234

      Integral cutoff                 1.00e-12
      Number of threads:                 1

	Batch   1 pq = [       0,    9405] index = [             0,44231715] size =     44231715
	Batch   2 pq = [    9405,   13301] index = [      44231715,88464951] size =     44233236
	Batch   3 pq = [   13301,   16290] index = [      88464951,132690195] size =     44225244
	Batch   4 pq = [   16290,   18810] index = [     132690195,176917455] size =     44227260
	Batch   5 pq = [   18810,   21030] index = [     176917455,221140965] size =     44223510
	Batch   6 pq = [   21030,   23037] index = [     221140965,265363203] size =     44222238
	Batch   7 pq = [   23037,   24883] index = [     265363203,309594286] size =     44231083
	Batch   8 pq = [   24883,   26601] index = [     309594286,353819901] size =     44225615
	Batch   9 pq = [   26601,   27495] index = [     353819901,378001260] size =     24181359
  Task number: 35
  Buffer size: 11059200
  Buffer per thread: 2
  We computed 19177460 shell quartets total.
  Whereas there are 21487290 unique shell quartets.

  ==> DiskJK: Disk-Based J/K Matrices <==

    J tasked:                  Yes
    K tasked:                  Yes
    wK tasked:                  No
    Memory [MiB]:              375
    Schwarz Cutoff:          1E-12

    OpenMP threads:              1

  Minimum eigenvalue in the overlap matrix is 3.3458111660E-04.
  Using Symmetric Orthogonalization.

  SCF Guess: Superposition of Atomic Densities via on-the-fly atomic UHF.

  ==> Iterations <==

                        Total Energy        Delta E     RMS |[F,P]|

   @RHF iter SAD:  -461.75430496677717   -4.61754e+02   0.00000e+00
   @RHF iter   1:  -462.59741794074938   -8.43113e-01   2.84599e-03 DIIS
   @RHF iter   2:  -462.84356319004326   -2.46145e-01   1.21691e-03 DIIS
   @RHF iter   3:  -462.88447295056937   -4.09098e-02   2.71006e-04 DIIS
   @RHF iter   4:  -462.88776736447142   -3.29441e-03   1.05609e-04 DIIS
   @RHF iter   5:  -462.88812469692243   -3.57332e-04   2.03071e-05 DIIS
   @RHF iter   6:  -462.88814422383905   -1.95269e-05   6.57867e-06 DIIS
   @RHF iter   7:  -462.88814631054862   -2.08671e-06   1.91033e-06 DIIS
   @RHF iter   8:  -462.88814657085447   -2.60306e-07   7.56883e-07 DIIS
   @RHF iter   9:  -462.88814661542966   -4.45752e-08   3.25469e-07 DIIS
   @RHF iter  10:  -462.88814662506900   -9.63934e-09   1.37996e-07 DIIS
   @RHF iter  11:  -462.88814662814502   -3.07602e-09   6.14595e-08 DIIS
   @RHF iter  12:  -462.88814662872198   -5.76961e-10   2.77765e-08 DIIS
   @RHF iter  13:  -462.88814662880202   -8.00355e-11   8.59551e-09 DIIS
   @RHF iter  14:  -462.88814662880895   -6.93490e-12   1.91238e-09 DIIS
   @RHF iter  15:  -462.88814662881043   -1.47793e-12   6.87674e-10 DIIS
   @RHF iter  16:  -462.88814662881060   -1.70530e-13   2.15955e-10 DIIS
   @RHF iter  17:  -462.88814662880787    2.72848e-12   9.06689e-11 DIIS
  Energy and wave function converged.

  ==> Post-Iterations <==

    Orbital Energies [Eh]
    ---------------------

    Doubly Occupied:

       1A    -20.581900     2A    -11.300265     3A    -11.240278
       4A    -11.238842     5A    -11.234496     6A    -11.231876
       7A    -11.231358     8A    -11.227232     9A    -11.213756
      10A    -11.208124    11A    -11.207415    12A     -1.406351
      13A     -1.149519    14A     -1.052960    15A     -1.035442
      16A     -1.020674    17A     -0.921918    18A     -0.920252
      19A     -0.846004    20A     -0.802805    21A     -0.786153
      22A     -0.732094    23A     -0.669596    24A     -0.642717
      25A     -0.622820    26A     -0.608112    27A     -0.595114
      28A     -0.592875    29A     -0.587463    30A     -0.576013
      31A     -0.564085    32A     -0.548551    33A     -0.526616
      34A     -0.525794    35A     -0.494162    36A     -0.485168
      37A     -0.466807    38A     -0.463915    39A     -0.462417
      40A     -0.458038    41A     -0.341463    42A     -0.297150

    Virtual:

      43A      0.126214    44A      0.156308    45A      0.163582
      46A      0.185691    47A      0.195577    48A      0.212721
      49A      0.219308    50A      0.238630    51A      0.239770
      52A      0.254191    53A      0.258875    54A      0.265903
      55A      0.272462    56A      0.284351    57A      0.291080
      58A      0.296788    59A      0.306804    60A      0.311211
      61A      0.367639    62A      0.370889    63A      0.374114
      64A      0.430401    65A      0.434871    66A      0.453327
      67A      0.475959    68A      0.494662    69A      0.505096
      70A      0.585336    71A      0.599103    72A      0.609328
      73A      0.616190    74A      0.617339    75A      0.626255
      76A      0.638854    77A      0.657106    78A      0.666572
      79A      0.680836    80A      0.702694    81A      0.726293
      82A      0.730930    83A      0.736350    84A      0.739687
      85A      0.763255    86A      0.772402    87A      0.780204
      88A      0.791488    89A      0.804594    90A      0.824697
      91A      0.836419    92A      0.847471    93A      0.850381
      94A      0.874670    95A      0.880421    96A      0.883710
      97A      0.888494    98A      0.896488    99A      0.899749
     100A      0.902445   101A      0.908182   102A      0.910143
     103A      0.918198   104A      0.923982   105A      0.930809
     106A      0.939377   107A      0.949909   108A      0.952597
     109A      0.962656   110A      0.972853   111A      0.998361
     112A      1.019651   113A      1.034436   114A      1.055462
     115A      1.116655   116A      1.134783   117A      1.135059
     118A      1.143864   119A      1.155742   120A      1.170785
     121A      1.212520   122A      1.215218   123A      1.240528
     124A      1.247955   125A      1.275067   126A      1.285414
     127A      1.297225   128A      1.309230   129A      1.311991
     130A      1.345181   131A      1.368176   132A      1.393902
     133A      1.402803   134A      1.471572   135A      1.482168
     136A      1.494346   137A      1.502836   138A      1.526167
     139A      1.547351   140A      1.582119   141A      1.610734
     142A      1.628795   143A      1.641014   144A      1.670397
     145A      1.675572   146A      1.696116   147A      1.699334
     148A      1.715966   149A      1.738750   150A      1.744198
     151A      1.776922   152A      1.797093   153A      1.803447
     154A      1.856392   155A      1.864850   156A      1.878509
     157A      1.879275   158A      1.883642   159A      1.896544
     160A      1.899406   161A      1.907763   162A      1.918103
     163A      1.926347   164A      1.929385   165A      1.936452
     166A      1.958915   167A      1.970283   168A      1.973551
     169A      1.975498   170A      1.987809   171A      1.995886
     172A      2.000772   173A      2.014105   174A      2.027997
     175A      2.039622   176A      2.055570   177A      2.060103
     178A      2.062879   179A      2.067434   180A      2.079270
     181A      2.133681   182A      2.148386   183A      2.153023
     184A      2.161087   185A      2.164600   186A      2.194959
     187A      2.239387   188A      2.255024   189A      2.261336
     190A      2.273347   191A      2.276490   192A      2.315003
     193A      2.334078   194A      2.338901   195A      2.357403
     196A      2.393089   197A      2.428703   198A      2.460868
     199A      2.467602   200A      2.471849   201A      2.494034
     202A      2.523075   203A      2.531071   204A      2.573235
     205A      2.597552   206A      2.614998   207A      2.625083
     208A      2.638003   209A      2.659132   210A      2.750301
     211A      2.755040   212A      2.769456   213A      2.775301
     214A      2.786614   215A      2.789296   216A      2.797453
     217A      2.817119   218A      2.822551   219A      2.906365
     220A      2.928130   221A      2.957093   222A      2.967225
     223A      2.979228   224A      2.988557   225A      3.080675
     226A      3.095206   227A      3.098506   228A      3.262691
     229A      3.269027   230A      3.346270   231A      3.598733
     232A      3.688299   233A      3.978306   234A      4.193857

    Final Occupation by Irrep:
              A
    DOCC [    42 ]

  @RHF Final Energy:  -462.88814662880787

   => Energetics <=

    Nuclear Repulsion Energy =            579.9223570995891350
    One-Electron Energy =               -1777.3838302436124650
    Two-Electron Energy =                 734.5733265152155127
    Total Energy =                       -462.8881466288078173

Computation Completed

Properties will be evaluated at   0.000000,   0.000000,   0.000000 [a0]

Properties computed using the SCF density matrix

  Nuclear Dipole Moment: [e a0]
     X:    11.7950      Y:     6.0962      Z:     3.8633

  Electronic Dipole Moment: [e a0]
     X:   -11.8589      Y:    -6.4353      Z:    -3.4280

  Dipole Moment: [e a0]
     X:    -0.0639      Y:    -0.3391      Z:     0.4353     Total:     0.5554

  Dipole Moment: [D]
     X:    -0.1623      Y:    -0.8619      Z:     1.1063     Total:     1.4118

*** tstop() called on ds3 at Mon Apr 27 07:27:11 2020
Module time:
	user time   =     145.49 seconds =       2.42 minutes
	system time =      57.26 seconds =       0.95 minutes
	total time  =        255 seconds =       4.25 minutes
Total time:
	user time   =     145.49 seconds =       2.42 minutes
	system time =      57.26 seconds =       0.95 minutes
	total time  =        255 seconds =       4.25 minutes
                                     G D M A

                                 by Anthony Stone

                           version 2.2.06, 22 June 2011

               Distributed Multipoles from Gaussian wavefunctions

Starting at 7:27:11 on 27 Apr 2020

Using SCF density matrix from file ./SSI/SSI-004ARG-095TYR-1-dimer.test.5784.fchk

                         Distributed Multipole Analysis

Standard DMA

Positions and radii in angstrom
Multipole moments in atomic units, ea_0^k for rank k

C          x =  2.846276  y =  0.806629  z = -0.547299 angstrom
           Maximum rank =  0   Radius =  0.650 angstrom
                   Q00  =  -0.080075

C          x =  4.142276  y =  0.035629  z = -0.676299 angstrom
           Maximum rank =  0   Radius =  0.650 angstrom
                   Q00  =  -0.208919

C          x =  3.020276  y =  2.190629  z =  0.037701 angstrom
           Maximum rank =  0   Radius =  0.650 angstrom
                   Q00  =  -0.228449

H          x =  2.370276  y =  0.870629  z = -1.524299 angstrom
           Maximum rank =  0   Radius =  0.325 angstrom
                   Q00  =   0.051339

H          x =  2.167276  y =  0.260629  z =  0.113701 angstrom
           Maximum rank =  0   Radius =  0.325 angstrom
                   Q00  =   0.043401

H          x =  4.621276  y =  0.013629  z =  0.306701 angstrom
           Maximum rank =  0   Radius =  0.325 angstrom
                   Q00  =   0.070104

H          x =  3.456276  y =  2.102629  z =  1.033701 angstrom
           Maximum rank =  0   Radius =  0.325 angstrom
                   Q00  =   0.070264

H          x =  3.699276  y =  2.780629  z = -0.579299 angstrom
           Maximum rank =  0   Radius =  0.325 angstrom
                   Q00  =   0.069629

H          x =  4.807936  y =  0.526589  z = -1.401449 angstrom
           Maximum rank =  0   Radius =  0.325 angstrom
                   Q00  =   0.067105

H          x =  3.840366  y = -0.987815  z = -0.943539 angstrom
           Maximum rank =  0   Radius =  0.325 angstrom
                   Q00  =   0.057976

H          x =  2.058226  y =  2.717479  z =  0.120701 angstrom
           Maximum rank =  0   Radius =  0.325 angstrom
                   Q00  =   0.084187

C          x = -2.987724  y =  0.513629  z =  2.389701 angstrom
           Maximum rank =  0   Radius =  0.650 angstrom
                   Q00  =  -0.182056

C          x = -0.622724  y = -0.808371  z = -0.903299 angstrom
           Maximum rank =  0   Radius =  0.650 angstrom
                   Q00  =   0.376938

C          x = -1.390724  y =  0.341629  z = -1.042299 angstrom
           Maximum rank =  0   Radius =  0.650 angstrom
                   Q00  =  -0.118815

C          x = -0.601724  y = -1.560371  z =  0.281701 angstrom
           Maximum rank =  0   Radius =  0.650 angstrom
                   Q00  =  -0.201229

C          x = -2.145724  y =  0.748629  z =  0.048701 angstrom
           Maximum rank =  0   Radius =  0.650 angstrom
                   Q00  =  -0.062171

C          x = -1.383724  y = -1.147371  z =  1.363701 angstrom
           Maximum rank =  0   Radius =  0.650 angstrom
                   Q00  =  -0.066076

C          x = -2.162724  y =  0.000629  z =  1.233701 angstrom
           Maximum rank =  0   Radius =  0.650 angstrom
                   Q00  =  -0.104041

O          x =  0.172276  y = -1.251371  z = -1.900299 angstrom
           Maximum rank =  0   Radius =  0.650 angstrom
                   Q00  =  -0.621121

H          x = -1.416724  y =  0.906629  z = -1.956299 angstrom
           Maximum rank =  0   Radius =  0.325 angstrom
                   Q00  =   0.083124

H          x =  0.641276  y = -2.046371  z = -1.629299 angstrom
           Maximum rank =  0   Radius =  0.325 angstrom
                   Q00  =   0.407220

H          x =  0.007276  y = -2.450371  z =  0.370701 angstrom
           Maximum rank =  0   Radius =  0.325 angstrom
                   Q00  =   0.069328

H          x = -2.752724  y =  1.643629  z = -0.024299 angstrom
           Maximum rank =  0   Radius =  0.325 angstrom
                   Q00  =   0.064020

H          x = -1.386724  y = -1.714371  z =  2.283701 angstrom
           Maximum rank =  0   Radius =  0.325 angstrom
                   Q00  =   0.071638

H          x = -3.323724  y = -0.312371  z =  3.018701 angstrom
           Maximum rank =  0   Radius =  0.325 angstrom
                   Q00  =   0.095277

H          x = -3.869724  y =  1.004629  z =  1.979701 angstrom
           Maximum rank =  0   Radius =  0.325 angstrom
                   Q00  =   0.095068

H          x = -2.338984  y =  1.193399  z =  2.961581 angstrom
           Maximum rank =  0   Radius =  0.325 angstrom
                   Q00  =   0.096333

Total multipoles referred to origin at
           x =   0.000000,  y =    0.000000,  z =    0.000000 angstrom
                   Q00  =  -0.000000

Finished at 7:27:11 on 27 Apr 2020

  DMA results are available in the Python driver through the
	  variable('DMA DISTRIBUTED MULTIPOLES')
  and
	  variable('DMA TOTAL MULTIPOLES')
  commands.

    Psi4 stopped on: Monday, 27 April 2020 07:27AM
    Psi4 wall time for execution: 0:04:14.75

*** Psi4 exiting successfully. Buy a developer a beer!
