                               Psi4 1.3.2 release

  ==> Input File <==

--------------------------------------------------------------------------
import numpy as np
set {scf_type pk
basis cc-pvdz
d_convergence 10
gdma_switch   0
gdma_limit    0
gdma_origin   [ 0.0,  0.0,  0.0 ]
}
molecule test {
    units Angstrom
    0 1
    --
    0 1
    C                0.764216309199698    -1.948269612143685    -1.450672749167585
    C               -0.223783690800302    -1.515269612143685     0.814327250832415
    C               -0.186783690800302    -2.274269612143685    -0.350672749167585
    C               -1.079783690800302    -1.849269612143685     1.860327250832415
    C               -1.005783690800302    -3.385269612143685    -0.443672749167585
    C               -1.900783690800302    -2.937269612143685     1.749327250832415
    C               -1.876783690800302    -3.703269612143685     0.610327250832415
    H                0.422216309199698    -0.653269612143685     0.913327250832415
    H               -1.097783690800302    -1.249269612143685     2.757327250832415
    H                1.013216309199698    -0.886269612143685    -1.410672749167585
    H                0.277216309199698    -2.142269612143685    -2.407672749167585
    H               -0.984783690800302    -4.006269612143685    -1.328672749167584
    H               -2.556783690800302    -3.214269612143685     2.556327250832415
    H               -2.529783690800302    -4.559269612143685     0.532327250832415
    H                1.686766309199698    -2.544276612143686    -1.389988749167585
    C                3.026216309199698     3.351730387856314    -0.532672749167585
    C               -0.941783690800302     1.846730387856315    -0.245672749167585
    C               -0.258783690800302     2.195730387856315     0.917327250832415
    C               -0.363783690800302     1.999730387856315    -1.490672749167585
    C                1.018216309199698     2.701730387856315     0.816327250832415
    C                0.921216309199698     2.500730387856315    -1.575672749167585
    C                1.625216309199698     2.843730387856315    -0.432672749167585
    H               -1.927783690800302     1.424730387856315    -0.159672749167585
    H               -0.721783690800302     2.056730387856315     1.885327250832415
    H               -0.906783690800302     1.728730387856315    -2.383672749167585
    H                1.547216309199698     2.980730387856315     1.717327250832415
    H                1.387216309199698     2.597730387856315    -2.547672749167585
    H                3.210216309199697     4.031730387856316     0.301327250832415
    H                3.142216309199698     3.931730387856315    -1.446672749167585
    H                3.789866309199697     2.560248387856315    -0.512689749167585

}
e, wfn = energy('scf', return_wfn=True)
gdma(wfn)
dmavals = variable('DMA DISTRIBUTED MULTIPOLES')
charges = np.array(dmavals)
print(charges)
np.save('SSI-077PHE-089PHE-1-dimer.npy', np.array(charges))--------------------------------------------------------------------------

*** tstart() called on ds3
*** at Mon Apr 27 19:00:49 2020

   => Loading Basis Set <=

    Name: CC-PVDZ
    Role: ORBITAL
    Keyword: BASIS
    atoms 1-7, 16-22  entry C          line   138 file /theoryfs2/ds/metcalf/miniconda2/envs/tf2gpu/share/psi4/basis/cc-pvdz.gbs
    atoms 8-15, 23-30 entry H          line    22 file /theoryfs2/ds/metcalf/miniconda2/envs/tf2gpu/share/psi4/basis/cc-pvdz.gbs

         ---------------------------------------------------------
                                   SCF
               by Justin Turney, Rob Parrish, Andy Simmonett
                          and Daniel G. A. Smith
                              RHF Reference
                        1 Threads,    500 MiB Core
         ---------------------------------------------------------

  ==> Geometry <==

    Molecular point group: c1
    Full point group: C1

    Geometry (in Angstrom), charge = 0, multiplicity = 1:

       Center              X                  Y                   Z               Mass
    ------------   -----------------  -----------------  -----------------  -----------------
         C            0.764216309200    -1.948269612144    -1.450672749168    12.000000000000
         C           -0.223783690800    -1.515269612144     0.814327250832    12.000000000000
         C           -0.186783690800    -2.274269612144    -0.350672749168    12.000000000000
         C           -1.079783690800    -1.849269612144     1.860327250832    12.000000000000
         C           -1.005783690800    -3.385269612144    -0.443672749168    12.000000000000
         C           -1.900783690800    -2.937269612144     1.749327250832    12.000000000000
         C           -1.876783690800    -3.703269612144     0.610327250832    12.000000000000
         H            0.422216309200    -0.653269612144     0.913327250832     1.007825032230
         H           -1.097783690800    -1.249269612144     2.757327250832     1.007825032230
         H            1.013216309200    -0.886269612144    -1.410672749168     1.007825032230
         H            0.277216309200    -2.142269612144    -2.407672749168     1.007825032230
         H           -0.984783690800    -4.006269612144    -1.328672749168     1.007825032230
         H           -2.556783690800    -3.214269612144     2.556327250832     1.007825032230
         H           -2.529783690800    -4.559269612144     0.532327250832     1.007825032230
         H            1.686766309200    -2.544276612144    -1.389988749168     1.007825032230
         C            3.026216309200     3.351730387856    -0.532672749168    12.000000000000
         C           -0.941783690800     1.846730387856    -0.245672749168    12.000000000000
         C           -0.258783690800     2.195730387856     0.917327250832    12.000000000000
         C           -0.363783690800     1.999730387856    -1.490672749168    12.000000000000
         C            1.018216309200     2.701730387856     0.816327250832    12.000000000000
         C            0.921216309200     2.500730387856    -1.575672749168    12.000000000000
         C            1.625216309200     2.843730387856    -0.432672749168    12.000000000000
         H           -1.927783690800     1.424730387856    -0.159672749168     1.007825032230
         H           -0.721783690800     2.056730387856     1.885327250832     1.007825032230
         H           -0.906783690800     1.728730387856    -2.383672749168     1.007825032230
         H            1.547216309200     2.980730387856     1.717327250832     1.007825032230
         H            1.387216309200     2.597730387856    -2.547672749168     1.007825032230
         H            3.210216309200     4.031730387856     0.301327250832     1.007825032230
         H            3.142216309200     3.931730387856    -1.446672749168     1.007825032230
         H            3.789866309200     2.560248387856    -0.512689749168     1.007825032230

  Running in c1 symmetry.

  Rotational constants: A =      0.04474  B =      0.01050  C =      0.00972 [cm^-1]
  Rotational constants: A =   1341.31043  B =    314.84850  C =    291.48960 [MHz]
  Nuclear repulsion =  784.952332000490969

  Charge       = 0
  Multiplicity = 1
  Electrons    = 100
  Nalpha       = 50
  Nbeta        = 50

  ==> Algorithm <==

  SCF Algorithm Type is PK.
  DIIS enabled.
  MOM disabled.
  Fractional occupation disabled.
  Guess Type is SAD.
  Energy threshold   = 1.00e-06
  Density threshold  = 1.00e-10
  Integral threshold = 0.00e+00

  ==> Primary Basis <==

  Basis Set: CC-PVDZ
    Blend: CC-PVDZ
    Number of shells: 132
    Number of basis function: 276
    Number of Cartesian functions: 290
    Spherical Harmonics?: true
    Max angular momentum: 2

  ==> Pre-Iterations <==

   -------------------------------------------------------
    Irrep   Nso     Nmo     Nalpha   Nbeta   Ndocc  Nsocc
   -------------------------------------------------------
     A        276     276       0       0       0       0
   -------------------------------------------------------
    Total     276     276      50      50      50       0
   -------------------------------------------------------

  ==> Integral Setup <==

  Using integral reordering PK algorithm.
  Sizing the integral batches needed.
  Building batch lookup table.
   Calculation information:
      Number of atoms:                  30
      Number of AO shells:             132
      Number of primitives:            388
      Number of atomic orbitals:       290
      Number of basis functions:       276

      Integral cutoff                 1.00e-12
      Number of threads:                 1

	Batch   1 pq = [       0,    9405] index = [             0,44231715] size =     44231715
	Batch   2 pq = [    9405,   13301] index = [      44231715,88464951] size =     44233236
	Batch   3 pq = [   13301,   16290] index = [      88464951,132690195] size =     44225244
	Batch   4 pq = [   16290,   18810] index = [     132690195,176917455] size =     44227260
	Batch   5 pq = [   18810,   21030] index = [     176917455,221140965] size =     44223510
	Batch   6 pq = [   21030,   23037] index = [     221140965,265363203] size =     44222238
	Batch   7 pq = [   23037,   24883] index = [     265363203,309594286] size =     44231083
	Batch   8 pq = [   24883,   26601] index = [     309594286,353819901] size =     44225615
	Batch   9 pq = [   26601,   28214] index = [     353819901,398029005] size =     44209104
	Batch  10 pq = [   28214,   29740] index = [     398029005,442248670] size =     44219665
	Batch  11 pq = [   29740,   31191] index = [     442248670,486454836] size =     44206166
	Batch  12 pq = [   31191,   32578] index = [     486454836,530679331] size =     44224495
	Batch  13 pq = [   32578,   33908] index = [     530679331,574893186] size =     44213855
	Batch  14 pq = [   33908,   35188] index = [     574893186,619115266] size =     44222080
	Batch  15 pq = [   35188,   36423] index = [     619115266,663335676] size =     44220410
	Batch  16 pq = [   36423,   37617] index = [     663335676,707538153] size =     44202477
	Batch  17 pq = [   37617,   38226] index = [     707538153,730632651] size =     23094498
  Task number: 67
  Buffer size: 11059200
  Buffer per thread: 2
  We computed 38933320 shell quartets total.
  Whereas there are 38531031 unique shell quartets.
     1.04 percent of shell quartets recomputed by reordering.

  ==> DiskJK: Disk-Based J/K Matrices <==

    J tasked:                  Yes
    K tasked:                  Yes
    wK tasked:                  No
    Memory [MiB]:              375
    Schwarz Cutoff:          1E-12

    OpenMP threads:              1

  Minimum eigenvalue in the overlap matrix is 2.8713259681E-04.
  Using Symmetric Orthogonalization.

  SCF Guess: Superposition of Atomic Densities via on-the-fly atomic UHF.

  ==> Iterations <==

                        Total Energy        Delta E     RMS |[F,P]|

   @RHF iter SAD:  -538.59370885521844   -5.38594e+02   0.00000e+00
   @RHF iter   1:  -539.22069348261573   -6.26985e-01   2.33763e-03 DIIS
   @RHF iter   2:  -539.47704516792919   -2.56352e-01   9.61630e-04 DIIS
   @RHF iter   3:  -539.51540414684769   -3.83590e-02   2.17986e-04 DIIS
   @RHF iter   4:  -539.51858225231013   -3.17811e-03   5.25074e-05 DIIS
   @RHF iter   5:  -539.51871700942036   -1.34757e-04   1.53480e-05 DIIS
   @RHF iter   6:  -539.51872856832449   -1.15589e-05   4.50538e-06 DIIS
   @RHF iter   7:  -539.51872978639199   -1.21807e-06   1.21679e-06 DIIS
   @RHF iter   8:  -539.51872993751851   -1.51127e-07   4.66141e-07 DIIS
   @RHF iter   9:  -539.51872997916098   -4.16425e-08   2.39023e-07 DIIS
   @RHF iter  10:  -539.51872998950876   -1.03478e-08   1.09552e-07 DIIS
   @RHF iter  11:  -539.51872999228556   -2.77680e-09   3.32317e-08 DIIS
   @RHF iter  12:  -539.51872999243824   -1.52681e-10   1.43081e-08 DIIS
   @RHF iter  13:  -539.51872999245938   -2.11458e-11   4.17877e-09 DIIS
   @RHF iter  14:  -539.51872999246075   -1.36424e-12   1.24338e-09 DIIS
   @RHF iter  15:  -539.51872999246598   -5.22959e-12   6.82503e-10 DIIS
   @RHF iter  16:  -539.51872999246564    3.41061e-13   3.03346e-10 DIIS
   @RHF iter  17:  -539.51872999246370    1.93268e-12   1.29508e-10 DIIS
   @RHF iter  18:  -539.51872999246120    2.50111e-12   4.58533e-11 DIIS
  Energy and wave function converged.

  ==> Post-Iterations <==

    Orbital Energies [Eh]
    ---------------------

    Doubly Occupied:

       1A    -11.239775     2A    -11.234470     3A    -11.233662
       4A    -11.231277     5A    -11.231033     6A    -11.229962
       7A    -11.228871     8A    -11.228760     9A    -11.228357
      10A    -11.226735    11A    -11.224984    12A    -11.222000
      13A    -11.220971    14A    -11.220936    15A     -1.158801
      16A     -1.152119    17A     -1.047305    18A     -1.045721
      19A     -1.018355    20A     -1.004703    21A     -0.932140
      22A     -0.927448    23A     -0.826571    24A     -0.823374
      25A     -0.798878    26A     -0.788181    27A     -0.693477
      28A     -0.688198    29A     -0.635210    30A     -0.631057
      31A     -0.628751    32A     -0.624168    33A     -0.588418
      34A     -0.579243    35A     -0.574951    36A     -0.572413
      37A     -0.561470    38A     -0.560501    39A     -0.534628
      40A     -0.529062    41A     -0.493745    42A     -0.486311
      43A     -0.484585    44A     -0.483289    45A     -0.478184
      46A     -0.474050    47A     -0.337914    48A     -0.328693
      49A     -0.323104    50A     -0.315592

    Virtual:

      51A      0.134366    52A      0.135470    53A      0.144058
      54A      0.151761    55A      0.175449    56A      0.191885
      57A      0.199311    58A      0.204443    59A      0.220897
      60A      0.232251    61A      0.246741    62A      0.247038
      63A      0.255690    64A      0.262800    65A      0.268620
      66A      0.275757    67A      0.284680    68A      0.287455
      69A      0.301749    70A      0.312570    71A      0.367235
      72A      0.376429    73A      0.377359    74A      0.385955
      75A      0.453836    76A      0.458816    77A      0.463861
      78A      0.472313    79A      0.483336    80A      0.484651
      81A      0.489587    82A      0.500843    83A      0.562903
      84A      0.569595    85A      0.590956    86A      0.604364
      87A      0.624559    88A      0.638282    89A      0.670956
      90A      0.676344    91A      0.685960    92A      0.688982
      93A      0.696995    94A      0.701196    95A      0.714749
      96A      0.722421    97A      0.729634    98A      0.740501
      99A      0.743144   100A      0.745846   101A      0.751743
     102A      0.757090   103A      0.760348   104A      0.765356
     105A      0.769952   106A      0.776253   107A      0.779703
     108A      0.789324   109A      0.812536   110A      0.817568
     111A      0.841177   112A      0.843712   113A      0.854946
     114A      0.864459   115A      0.869161   116A      0.874933
     117A      0.879567   118A      0.883929   119A      0.893992
     120A      0.897059   121A      0.899736   122A      0.903141
     123A      0.914337   124A      0.928529   125A      0.932301
     126A      0.933972   127A      0.939069   128A      0.953646
     129A      0.975705   130A      1.003913   131A      1.007513
     132A      1.020950   133A      1.022816   134A      1.035876
     135A      1.050719   136A      1.071414   137A      1.125943
     138A      1.135216   139A      1.137333   140A      1.144677
     141A      1.149168   142A      1.156727   143A      1.167508
     144A      1.181333   145A      1.192312   146A      1.201834
     147A      1.235893   148A      1.238836   149A      1.248353
     150A      1.253647   151A      1.259014   152A      1.267857
     153A      1.273639   154A      1.278381   155A      1.299599
     156A      1.305722   157A      1.315674   158A      1.320596
     159A      1.323839   160A      1.331540   161A      1.342263
     162A      1.378581   163A      1.412281   164A      1.425682
     165A      1.502140   166A      1.508254   167A      1.526128
     168A      1.544011   169A      1.561410   170A      1.578146
     171A      1.601169   172A      1.618233   173A      1.668209
     174A      1.684821   175A      1.701736   176A      1.707345
     177A      1.725834   178A      1.745302   179A      1.755082
     180A      1.758415   181A      1.772579   182A      1.775607
     183A      1.792413   184A      1.811604   185A      1.818568
     186A      1.824137   187A      1.860930   188A      1.873795
     189A      1.890033   190A      1.898056   191A      1.901393
     192A      1.913167   193A      1.918952   194A      1.920764
     195A      1.925475   196A      1.931841   197A      1.932574
     198A      1.935966   199A      1.945630   200A      1.955496
     201A      1.958665   202A      1.963178   203A      1.974430
     204A      1.981985   205A      1.989029   206A      1.996447
     207A      2.008465   208A      2.015268   209A      2.045337
     210A      2.055219   211A      2.066538   212A      2.073388
     213A      2.080608   214A      2.087602   215A      2.111437
     216A      2.120511   217A      2.151499   218A      2.163875
     219A      2.166955   220A      2.170726   221A      2.176412
     222A      2.182295   223A      2.185126   224A      2.190815
     225A      2.195103   226A      2.204224   227A      2.258656
     228A      2.275458   229A      2.280383   230A      2.285601
     231A      2.298667   232A      2.303663   233A      2.306119
     234A      2.309004   235A      2.318934   236A      2.326669
     237A      2.336602   238A      2.372215   239A      2.472608
     240A      2.479936   241A      2.481181   242A      2.496048
     243A      2.508274   244A      2.512823   245A      2.550335
     246A      2.559306   247A      2.624561   248A      2.640349
     249A      2.741975   250A      2.751854   251A      2.762520
     252A      2.767462   253A      2.774716   254A      2.794518
     255A      2.802525   256A      2.808063   257A      2.809388
     258A      2.833938   259A      2.854856   260A      2.859346
     261A      2.885094   262A      2.895875   263A      2.994703
     264A      2.996494   265A      3.031435   266A      3.035625
     267A      3.044881   268A      3.050322   269A      3.167313
     270A      3.175965   271A      3.219966   272A      3.227200
     273A      3.314777   274A      3.322462   275A      3.995053
     276A      4.008338

    Final Occupation by Irrep:
              A
    DOCC [    50 ]

  @RHF Final Energy:  -539.51872999246120

   => Energetics <=

    Nuclear Repulsion Energy =            784.9523320004909692
    One-Electron Energy =               -2286.2773237030523887
    Two-Electron Energy =                 961.8062617101002161
    Total Energy =                       -539.5187299924612034

Computation Completed

Properties will be evaluated at   0.000000,   0.000000,   0.000000 [a0]

Properties computed using the SCF density matrix

  Nuclear Dipole Moment: [e a0]
     X:     5.3911      Y:     1.9286      Z:    -2.7413

  Electronic Dipole Moment: [e a0]
     X:    -5.1765      Y:    -1.7831      Z:     2.6292

  Dipole Moment: [e a0]
     X:     0.2146      Y:     0.1454      Z:    -0.1120     Total:     0.2824

  Dipole Moment: [D]
     X:     0.5454      Y:     0.3697      Z:    -0.2848     Total:     0.7178

*** tstop() called on ds3 at Mon Apr 27 19:12:35 2020
Module time:
	user time   =     314.70 seconds =       5.25 minutes
	system time =     117.96 seconds =       1.97 minutes
	total time  =        706 seconds =      11.77 minutes
Total time:
	user time   =     314.70 seconds =       5.25 minutes
	system time =     117.96 seconds =       1.97 minutes
	total time  =        706 seconds =      11.77 minutes
                                     G D M A

                                 by Anthony Stone

                           version 2.2.06, 22 June 2011

               Distributed Multipoles from Gaussian wavefunctions

Starting at 19:12:35 on 27 Apr 2020

Using SCF density matrix from file ./SSI/SSI-077PHE-089PHE-1-dimer.test.1797.fchk

                         Distributed Multipole Analysis

Standard DMA

Positions and radii in angstrom
Multipole moments in atomic units, ea_0^k for rank k

C          x =  0.764216  y = -1.948270  z = -1.450673 angstrom
           Maximum rank =  0   Radius =  0.650 angstrom
                   Q00  =  -0.206505

C          x = -0.223784  y = -1.515270  z =  0.814327 angstrom
           Maximum rank =  0   Radius =  0.650 angstrom
                   Q00  =  -0.023124

C          x = -0.186784  y = -2.274270  z = -0.350673 angstrom
           Maximum rank =  0   Radius =  0.650 angstrom
                   Q00  =  -0.092439

C          x = -1.079784  y = -1.849270  z =  1.860327 angstrom
           Maximum rank =  0   Radius =  0.650 angstrom
                   Q00  =  -0.078795

C          x = -1.005784  y = -3.385270  z = -0.443673 angstrom
           Maximum rank =  0   Radius =  0.650 angstrom
                   Q00  =  -0.099622

C          x = -1.900784  y = -2.937270  z =  1.749327 angstrom
           Maximum rank =  0   Radius =  0.650 angstrom
                   Q00  =  -0.079599

C          x = -1.876784  y = -3.703270  z =  0.610327 angstrom
           Maximum rank =  0   Radius =  0.650 angstrom
                   Q00  =  -0.016382

H          x =  0.422216  y = -0.653270  z =  0.913327 angstrom
           Maximum rank =  0   Radius =  0.325 angstrom
                   Q00  =   0.064791

H          x = -1.097784  y = -1.249270  z =  2.757327 angstrom
           Maximum rank =  0   Radius =  0.325 angstrom
                   Q00  =   0.056531

H          x =  1.013216  y = -0.886270  z = -1.410673 angstrom
           Maximum rank =  0   Radius =  0.325 angstrom
                   Q00  =   0.109252

H          x =  0.277216  y = -2.142270  z = -2.407673 angstrom
           Maximum rank =  0   Radius =  0.325 angstrom
                   Q00  =   0.093832

H          x = -0.984784  y = -4.006270  z = -1.328673 angstrom
           Maximum rank =  0   Radius =  0.325 angstrom
                   Q00  =   0.053951

H          x = -2.556784  y = -3.214270  z =  2.556327 angstrom
           Maximum rank =  0   Radius =  0.325 angstrom
                   Q00  =   0.053428

H          x = -2.529784  y = -4.559270  z =  0.532327 angstrom
           Maximum rank =  0   Radius =  0.325 angstrom
                   Q00  =   0.060085

H          x =  1.686766  y = -2.544277  z = -1.389989 angstrom
           Maximum rank =  0   Radius =  0.325 angstrom
                   Q00  =   0.101136

C          x =  3.026216  y =  3.351730  z = -0.532673 angstrom
           Maximum rank =  0   Radius =  0.650 angstrom
                   Q00  =  -0.197679

C          x = -0.941784  y =  1.846730  z = -0.245673 angstrom
           Maximum rank =  0   Radius =  0.650 angstrom
                   Q00  =  -0.011048

C          x = -0.258784  y =  2.195730  z =  0.917327 angstrom
           Maximum rank =  0   Radius =  0.650 angstrom
                   Q00  =  -0.075643

C          x = -0.363784  y =  1.999730  z = -1.490673 angstrom
           Maximum rank =  0   Radius =  0.650 angstrom
                   Q00  =  -0.073602

C          x =  1.018216  y =  2.701730  z =  0.816327 angstrom
           Maximum rank =  0   Radius =  0.650 angstrom
                   Q00  =  -0.087610

C          x =  0.921216  y =  2.500730  z = -1.575673 angstrom
           Maximum rank =  0   Radius =  0.650 angstrom
                   Q00  =  -0.047218

C          x =  1.625216  y =  2.843730  z = -0.432673 angstrom
           Maximum rank =  0   Radius =  0.650 angstrom
                   Q00  =  -0.105719

H          x = -1.927784  y =  1.424730  z = -0.159673 angstrom
           Maximum rank =  0   Radius =  0.325 angstrom
                   Q00  =   0.064617

H          x = -0.721784  y =  2.056730  z =  1.885327 angstrom
           Maximum rank =  0   Radius =  0.325 angstrom
                   Q00  =   0.064511

H          x = -0.906784  y =  1.728730  z = -2.383673 angstrom
           Maximum rank =  0   Radius =  0.325 angstrom
                   Q00  =   0.065138

H          x =  1.547216  y =  2.980730  z =  1.717327 angstrom
           Maximum rank =  0   Radius =  0.325 angstrom
                   Q00  =   0.055511

H          x =  1.387216  y =  2.597730  z = -2.547673 angstrom
           Maximum rank =  0   Radius =  0.325 angstrom
                   Q00  =   0.054237

H          x =  3.210216  y =  4.031730  z =  0.301327 angstrom
           Maximum rank =  0   Radius =  0.325 angstrom
                   Q00  =   0.095721

H          x =  3.142216  y =  3.931730  z = -1.446673 angstrom
           Maximum rank =  0   Radius =  0.325 angstrom
                   Q00  =   0.098275

H          x =  3.789866  y =  2.560248  z = -0.512690 angstrom
           Maximum rank =  0   Radius =  0.325 angstrom
                   Q00  =   0.103969

Total multipoles referred to origin at
           x =   0.000000,  y =    0.000000,  z =    0.000000 angstrom
                   Q00  =  -0.000000

Finished at 19:12:35 on 27 Apr 2020

  DMA results are available in the Python driver through the
	  variable('DMA DISTRIBUTED MULTIPOLES')
  and
	  variable('DMA TOTAL MULTIPOLES')
  commands.

    Psi4 stopped on: Monday, 27 April 2020 07:12PM
    Psi4 wall time for execution: 0:11:46.43

*** Psi4 exiting successfully. Buy a developer a beer!
