                               Psi4 1.3.2 release

  ==> Input File <==

--------------------------------------------------------------------------
import numpy as np
set {scf_type pk
basis cc-pvdz
d_convergence 10
gdma_switch   0
gdma_limit    0
gdma_origin   [ 0.0,  0.0,  0.0 ]
}
molecule test {
    units Angstrom
    0 1
    --
    0 1
    C                0.008149009138521     1.953053338574833    -2.629676180679244
    C               -0.287850990861479     0.322053338574833    -0.722676180679244
    C               -0.434850990861479     1.614053338574833    -1.225676180679244
    C               -0.678850990861479     0.010053338574833     0.575323819320756
    C               -1.002850990861479     2.587053338574833    -0.409676180679244
    C               -1.251850990861479     0.986053338574833     1.377323819320756
    C               -1.410850990861478     2.274053338574833     0.884323819320756
    O               -1.636850990861479     0.698053338574833     2.654323819320756
    H                0.146149009138521    -0.444946661425167    -1.347676180679244
    H               -0.549850990861479    -0.984946661425167     0.969323819320756
    H                0.814149009138521     1.279053338574833    -2.917676180679244
    H                0.417149009138521     2.964053338574832    -2.628676180679244
    H               -1.129850990861478     3.595053338574833    -0.781676180679244
    H               -1.851850990861479     3.041053338574832     1.505323819320756
    H               -2.011850990861479     1.468053338574833     3.091323819320756
    H               -0.798052990861479     1.899018338574833    -3.376076180679244
    C                1.924149009138522    -2.689946661425167    -0.404676180679244
    C                0.996149009138521    -3.648946661425167     0.362323819320756
    C                3.327149009138521    -3.242946661425167    -0.722676180679244
    H                1.454149009138522    -2.389946661425167    -1.339676180679244
    H                2.043149009138521    -1.785946661425167     0.191323819320756
    H                0.061149009138521    -3.124946661425168     0.561323819320756
    H                3.258149009138521    -4.112946661425167    -1.373676180679244
    H                3.896149009138521    -2.471946661425167    -1.240676180679244
    H                3.863149009138521    -3.500946661425167     0.190323819320756
    H                0.771582009138521    -4.541511661425168    -0.240086180679244
    H                1.443399009138521    -3.925883961425167     1.328383819320756

}
e, wfn = energy('scf', return_wfn=True)
gdma(wfn)
dmavals = variable('DMA DISTRIBUTED MULTIPOLES')
charges = np.array(dmavals)
print(charges)
np.save('SSI-148TYR-170ILE-1-dimer.npy', np.array(charges))--------------------------------------------------------------------------

*** tstart() called on ds3
*** at Mon Apr 27 18:59:33 2020

   => Loading Basis Set <=

    Name: CC-PVDZ
    Role: ORBITAL
    Keyword: BASIS
    atoms 1-7, 17-19  entry C          line   138 file /theoryfs2/ds/metcalf/miniconda2/envs/tf2gpu/share/psi4/basis/cc-pvdz.gbs
    atoms 8           entry O          line   198 file /theoryfs2/ds/metcalf/miniconda2/envs/tf2gpu/share/psi4/basis/cc-pvdz.gbs
    atoms 9-16, 20-27 entry H          line    22 file /theoryfs2/ds/metcalf/miniconda2/envs/tf2gpu/share/psi4/basis/cc-pvdz.gbs

         ---------------------------------------------------------
                                   SCF
               by Justin Turney, Rob Parrish, Andy Simmonett
                          and Daniel G. A. Smith
                              RHF Reference
                        1 Threads,    500 MiB Core
         ---------------------------------------------------------

  ==> Geometry <==

    Molecular point group: c1
    Full point group: C1

    Geometry (in Angstrom), charge = 0, multiplicity = 1:

       Center              X                  Y                   Z               Mass
    ------------   -----------------  -----------------  -----------------  -----------------
         C            0.008149009139     1.953053338575    -2.629676180679    12.000000000000
         C           -0.287850990861     0.322053338575    -0.722676180679    12.000000000000
         C           -0.434850990861     1.614053338575    -1.225676180679    12.000000000000
         C           -0.678850990861     0.010053338575     0.575323819321    12.000000000000
         C           -1.002850990861     2.587053338575    -0.409676180679    12.000000000000
         C           -1.251850990861     0.986053338575     1.377323819321    12.000000000000
         C           -1.410850990861     2.274053338575     0.884323819321    12.000000000000
         O           -1.636850990861     0.698053338575     2.654323819321    15.994914619570
         H            0.146149009139    -0.444946661425    -1.347676180679     1.007825032230
         H           -0.549850990861    -0.984946661425     0.969323819321     1.007825032230
         H            0.814149009139     1.279053338575    -2.917676180679     1.007825032230
         H            0.417149009139     2.964053338575    -2.628676180679     1.007825032230
         H           -1.129850990861     3.595053338575    -0.781676180679     1.007825032230
         H           -1.851850990861     3.041053338575     1.505323819321     1.007825032230
         H           -2.011850990861     1.468053338575     3.091323819321     1.007825032230
         H           -0.798052990861     1.899018338575    -3.376076180679     1.007825032230
         C            1.924149009139    -2.689946661425    -0.404676180679    12.000000000000
         C            0.996149009139    -3.648946661425     0.362323819321    12.000000000000
         C            3.327149009139    -3.242946661425    -0.722676180679    12.000000000000
         H            1.454149009139    -2.389946661425    -1.339676180679     1.007825032230
         H            2.043149009139    -1.785946661425     0.191323819321     1.007825032230
         H            0.061149009139    -3.124946661425     0.561323819321     1.007825032230
         H            3.258149009139    -4.112946661425    -1.373676180679     1.007825032230
         H            3.896149009139    -2.471946661425    -1.240676180679     1.007825032230
         H            3.863149009139    -3.500946661425     0.190323819321     1.007825032230
         H            0.771582009139    -4.541511661425    -0.240086180679     1.007825032230
         H            1.443399009139    -3.925883961425     1.328383819321     1.007825032230

  Running in c1 symmetry.

  Rotational constants: A =      0.04162  B =      0.01613  C =      0.01217 [cm^-1]
  Rotational constants: A =   1247.62540  B =    483.69980  C =    364.87625 [MHz]
  Nuclear repulsion =  569.229035846345596

  Charge       = 0
  Multiplicity = 1
  Electrons    = 84
  Nalpha       = 42
  Nbeta        = 42

  ==> Algorithm <==

  SCF Algorithm Type is PK.
  DIIS enabled.
  MOM disabled.
  Fractional occupation disabled.
  Guess Type is SAD.
  Energy threshold   = 1.00e-06
  Density threshold  = 1.00e-10
  Integral threshold = 0.00e+00

  ==> Primary Basis <==

  Basis Set: CC-PVDZ
    Blend: CC-PVDZ
    Number of shells: 114
    Number of basis function: 234
    Number of Cartesian functions: 245
    Spherical Harmonics?: true
    Max angular momentum: 2

  ==> Pre-Iterations <==

   -------------------------------------------------------
    Irrep   Nso     Nmo     Nalpha   Nbeta   Ndocc  Nsocc
   -------------------------------------------------------
     A        234     234       0       0       0       0
   -------------------------------------------------------
    Total     234     234      42      42      42       0
   -------------------------------------------------------

  ==> Integral Setup <==

  Using integral reordering PK algorithm.
  Sizing the integral batches needed.
  Building batch lookup table.
   Calculation information:
      Number of atoms:                  27
      Number of AO shells:             114
      Number of primitives:            322
      Number of atomic orbitals:       245
      Number of basis functions:       234

      Integral cutoff                 1.00e-12
      Number of threads:                 1

	Batch   1 pq = [       0,    9405] index = [             0,44231715] size =     44231715
	Batch   2 pq = [    9405,   13301] index = [      44231715,88464951] size =     44233236
	Batch   3 pq = [   13301,   16290] index = [      88464951,132690195] size =     44225244
	Batch   4 pq = [   16290,   18810] index = [     132690195,176917455] size =     44227260
	Batch   5 pq = [   18810,   21030] index = [     176917455,221140965] size =     44223510
	Batch   6 pq = [   21030,   23037] index = [     221140965,265363203] size =     44222238
	Batch   7 pq = [   23037,   24883] index = [     265363203,309594286] size =     44231083
	Batch   8 pq = [   24883,   26601] index = [     309594286,353819901] size =     44225615
	Batch   9 pq = [   26601,   27495] index = [     353819901,378001260] size =     24181359
  Task number: 35
  Buffer size: 11059200
  Buffer per thread: 2
  We computed 17718466 shell quartets total.
  Whereas there are 21487290 unique shell quartets.

  ==> DiskJK: Disk-Based J/K Matrices <==

    J tasked:                  Yes
    K tasked:                  Yes
    wK tasked:                  No
    Memory [MiB]:              375
    Schwarz Cutoff:          1E-12

    OpenMP threads:              1

  Minimum eigenvalue in the overlap matrix is 3.0694868542E-04.
  Using Symmetric Orthogonalization.

  SCF Guess: Superposition of Atomic Densities via on-the-fly atomic UHF.

  ==> Iterations <==

                        Total Energy        Delta E     RMS |[F,P]|

   @RHF iter SAD:  -461.68838064783159   -4.61688e+02   0.00000e+00
   @RHF iter   1:  -462.60867348319732   -9.20293e-01   2.81076e-03 DIIS
   @RHF iter   2:  -462.85090314169599   -2.42230e-01   1.18797e-03 DIIS
   @RHF iter   3:  -462.88999215929937   -3.90890e-02   2.68982e-04 DIIS
   @RHF iter   4:  -462.89324388707576   -3.25173e-03   1.05324e-04 DIIS
   @RHF iter   5:  -462.89359747258322   -3.53586e-04   2.01996e-05 DIIS
   @RHF iter   6:  -462.89361678943658   -1.93169e-05   6.24532e-06 DIIS
   @RHF iter   7:  -462.89361870593899   -1.91650e-06   1.86588e-06 DIIS
   @RHF iter   8:  -462.89361894357523   -2.37636e-07   7.06225e-07 DIIS
   @RHF iter   9:  -462.89361898226036   -3.86851e-08   2.98896e-07 DIIS
   @RHF iter  10:  -462.89361898986704   -7.60667e-09   1.25126e-07 DIIS
   @RHF iter  11:  -462.89361899229766   -2.43062e-09   5.48125e-08 DIIS
   @RHF iter  12:  -462.89361899278242   -4.84761e-10   2.48186e-08 DIIS
   @RHF iter  13:  -462.89361899285387   -7.14522e-11   8.17004e-09 DIIS
   @RHF iter  14:  -462.89361899285768   -3.80851e-12   1.90023e-09 DIIS
   @RHF iter  15:  -462.89361899285780   -1.13687e-13   6.77869e-10 DIIS
   @RHF iter  16:  -462.89361899285620    1.59162e-12   2.32682e-10 DIIS
   @RHF iter  17:  -462.89361899285615    5.68434e-14   1.02667e-10 DIIS
   @RHF iter  18:  -462.89361899285734   -1.19371e-12   5.41798e-11 DIIS
  Energy and wave function converged.

  ==> Post-Iterations <==

    Orbital Energies [Eh]
    ---------------------

    Doubly Occupied:

       1A    -20.582534     2A    -11.297777     3A    -11.237936
       4A    -11.236626     5A    -11.232300     6A    -11.232045
       7A    -11.228786     8A    -11.227889     9A    -11.220974
      10A    -11.218537    11A    -11.215416    12A     -1.399152
      13A     -1.151434    14A     -1.048473    15A     -1.037382
      16A     -1.017525    17A     -0.926332    18A     -0.926086
      19A     -0.844703    20A     -0.802249    21A     -0.796674
      22A     -0.731677    23A     -0.668428    24A     -0.641343
      25A     -0.623480    26A     -0.607012    27A     -0.596126
      28A     -0.586047    29A     -0.581331    30A     -0.569997
      31A     -0.566810    32A     -0.548342    33A     -0.536050
      34A     -0.526766    35A     -0.497091    36A     -0.485985
      37A     -0.470565    38A     -0.469621    39A     -0.467727
      40A     -0.464585    41A     -0.338063    42A     -0.302291

    Virtual:

      43A      0.130982    44A      0.155379    45A      0.174527
      46A      0.180700    47A      0.192713    48A      0.215319
      49A      0.218597    50A      0.229584    51A      0.238177
      52A      0.259013    53A      0.262933    54A      0.272902
      55A      0.282820    56A      0.285040    57A      0.287715
      58A      0.301744    59A      0.341463    60A      0.351108
      61A      0.360475    62A      0.375012    63A      0.400402
      64A      0.419614    65A      0.434848    66A      0.461809
      67A      0.490729    68A      0.502326    69A      0.511742
      70A      0.575508    71A      0.603461    72A      0.606716
      73A      0.617571    74A      0.633440    75A      0.637302
      76A      0.653333    77A      0.672656    78A      0.686004
      79A      0.689327    80A      0.701803    81A      0.712638
      82A      0.730506    83A      0.741459    84A      0.761658
      85A      0.766044    86A      0.776415    87A      0.791086
      88A      0.794292    89A      0.801959    90A      0.811166
      91A      0.831447    92A      0.846329    93A      0.849011
      94A      0.866344    95A      0.875776    96A      0.885617
      97A      0.891874    98A      0.897725    99A      0.900344
     100A      0.904106   101A      0.908515   102A      0.912769
     103A      0.924896   104A      0.928094   105A      0.937338
     106A      0.944508   107A      0.950439   108A      0.954090
     109A      0.977535   110A      0.995536   111A      1.001084
     112A      1.032382   113A      1.053784   114A      1.057784
     115A      1.109045   116A      1.126834   117A      1.142888
     118A      1.146857   119A      1.172409   120A      1.179498
     121A      1.214176   122A      1.222413   123A      1.247987
     124A      1.256625   125A      1.283594   126A      1.291302
     127A      1.297380   128A      1.311873   129A      1.337143
     130A      1.362934   131A      1.372935   132A      1.378550
     133A      1.410077   134A      1.465061   135A      1.478839
     136A      1.492926   137A      1.509596   138A      1.525760
     139A      1.546690   140A      1.559037   141A      1.616036
     142A      1.620185   143A      1.646506   144A      1.679648
     145A      1.688270   146A      1.692666   147A      1.700636
     148A      1.708403   149A      1.735471   150A      1.751467
     151A      1.783943   152A      1.804364   153A      1.806590
     154A      1.862927   155A      1.873639   156A      1.877643
     157A      1.885835   158A      1.893629   159A      1.899927
     160A      1.908682   161A      1.909502   162A      1.917954
     163A      1.919957   164A      1.932848   165A      1.947321
     166A      1.953583   167A      1.961151   168A      1.966919
     169A      1.975246   170A      1.978296   171A      1.985098
     172A      1.987631   173A      1.995387   174A      2.017731
     175A      2.043529   176A      2.051221   177A      2.056083
     178A      2.062418   179A      2.072081   180A      2.083800
     181A      2.124386   182A      2.143722   183A      2.151561
     184A      2.163629   185A      2.166571   186A      2.223226
     187A      2.233888   188A      2.269679   189A      2.279223
     190A      2.289543   191A      2.297285   192A      2.311179
     193A      2.328888   194A      2.347365   195A      2.366055
     196A      2.378350   197A      2.425345   198A      2.461157
     199A      2.481523   200A      2.491885   201A      2.505074
     202A      2.534427   203A      2.540875   204A      2.543627
     205A      2.582165   206A      2.602407   207A      2.613837
     208A      2.618800   209A      2.647723   210A      2.755610
     211A      2.762309   212A      2.766020   213A      2.777626
     214A      2.785228   215A      2.793211   216A      2.830107
     217A      2.837129   218A      2.849082   219A      2.902420
     220A      2.915806   221A      2.965075   222A      2.974999
     223A      2.979085   224A      3.009529   225A      3.059651
     226A      3.097031   227A      3.111263   228A      3.253811
     229A      3.295144   230A      3.346317   231A      3.580084
     232A      3.676242   233A      3.977060   234A      4.193516

    Final Occupation by Irrep:
              A
    DOCC [    42 ]

  @RHF Final Energy:  -462.89361899285734

   => Energetics <=

    Nuclear Repulsion Energy =            569.2290358463455959
    One-Electron Energy =               -1755.9249733173912773
    Two-Electron Energy =                 723.8023184781883401
    Total Energy =                       -462.8936189928573413

Computation Completed

Properties will be evaluated at   0.000000,   0.000000,   0.000000 [a0]

Properties computed using the SCF density matrix

  Nuclear Dipole Moment: [e a0]
     X:    11.0795      Y:   -12.2191      Z:    -6.9326

  Electronic Dipole Moment: [e a0]
     X:   -11.1804      Y:    12.8033      Z:     6.8217

  Dipole Moment: [e a0]
     X:    -0.1009      Y:     0.5842      Z:    -0.1108     Total:     0.6032

  Dipole Moment: [D]
     X:    -0.2565      Y:     1.4850      Z:    -0.2817     Total:     1.5331

*** tstop() called on ds3 at Mon Apr 27 19:02:44 2020
Module time:
	user time   =     126.06 seconds =       2.10 minutes
	system time =      56.41 seconds =       0.94 minutes
	total time  =        191 seconds =       3.18 minutes
Total time:
	user time   =     126.06 seconds =       2.10 minutes
	system time =      56.41 seconds =       0.94 minutes
	total time  =        191 seconds =       3.18 minutes
                                     G D M A

                                 by Anthony Stone

                           version 2.2.06, 22 June 2011

               Distributed Multipoles from Gaussian wavefunctions

Starting at 19:2:44 on 27 Apr 2020

Using SCF density matrix from file ./SSI/SSI-148TYR-170ILE-1-dimer.test.1169.fchk

                         Distributed Multipole Analysis

Standard DMA

Positions and radii in angstrom
Multipole moments in atomic units, ea_0^k for rank k

C          x =  0.008149  y =  1.953053  z = -2.629676 angstrom
           Maximum rank =  0   Radius =  0.650 angstrom
                   Q00  =  -0.193985

C          x = -0.287851  y =  0.322053  z = -0.722676 angstrom
           Maximum rank =  0   Radius =  0.650 angstrom
                   Q00  =   0.079261

C          x = -0.434851  y =  1.614053  z = -1.225676 angstrom
           Maximum rank =  0   Radius =  0.650 angstrom
                   Q00  =  -0.148921

C          x = -0.678851  y =  0.010053  z =  0.575324 angstrom
           Maximum rank =  0   Radius =  0.650 angstrom
                   Q00  =  -0.122960

C          x = -1.002851  y =  2.587053  z = -0.409676 angstrom
           Maximum rank =  0   Radius =  0.650 angstrom
                   Q00  =  -0.055995

C          x = -1.251851  y =  0.986053  z =  1.377324 angstrom
           Maximum rank =  0   Radius =  0.650 angstrom
                   Q00  =   0.324424

C          x = -1.410851  y =  2.274053  z =  0.884324 angstrom
           Maximum rank =  0   Radius =  0.650 angstrom
                   Q00  =  -0.164803

O          x = -1.636851  y =  0.698053  z =  2.654324 angstrom
           Maximum rank =  0   Radius =  0.650 angstrom
                   Q00  =  -0.688136

H          x =  0.146149  y = -0.444947  z = -1.347676 angstrom
           Maximum rank =  0   Radius =  0.325 angstrom
                   Q00  =   0.062424

H          x = -0.549851  y = -0.984947  z =  0.969324 angstrom
           Maximum rank =  0   Radius =  0.325 angstrom
                   Q00  =   0.070355

H          x =  0.814149  y =  1.279053  z = -2.917676 angstrom
           Maximum rank =  0   Radius =  0.325 angstrom
                   Q00  =   0.096610

H          x =  0.417149  y =  2.964053  z = -2.628676 angstrom
           Maximum rank =  0   Radius =  0.325 angstrom
                   Q00  =   0.095633

H          x = -1.129851  y =  3.595053  z = -0.781676 angstrom
           Maximum rank =  0   Radius =  0.325 angstrom
                   Q00  =   0.068015

H          x = -1.851851  y =  3.041053  z =  1.505324 angstrom
           Maximum rank =  0   Radius =  0.325 angstrom
                   Q00  =   0.069727

H          x = -2.011851  y =  1.468053  z =  3.091324 angstrom
           Maximum rank =  0   Radius =  0.325 angstrom
                   Q00  =   0.405157

H          x = -0.798053  y =  1.899018  z = -3.376076 angstrom
           Maximum rank =  0   Radius =  0.325 angstrom
                   Q00  =   0.100841

C          x =  1.924149  y = -2.689947  z = -0.404676 angstrom
           Maximum rank =  0   Radius =  0.650 angstrom
                   Q00  =  -0.080513

C          x =  0.996149  y = -3.648947  z =  0.362324 angstrom
           Maximum rank =  0   Radius =  0.650 angstrom
                   Q00  =  -0.251336

C          x =  3.327149  y = -3.242947  z = -0.722676 angstrom
           Maximum rank =  0   Radius =  0.650 angstrom
                   Q00  =  -0.245240

H          x =  1.454149  y = -2.389947  z = -1.339676 angstrom
           Maximum rank =  0   Radius =  0.325 angstrom
                   Q00  =   0.042563

H          x =  2.043149  y = -1.785947  z =  0.191324 angstrom
           Maximum rank =  0   Radius =  0.325 angstrom
                   Q00  =   0.051265

H          x =  0.061149  y = -3.124947  z =  0.561324 angstrom
           Maximum rank =  0   Radius =  0.325 angstrom
                   Q00  =   0.082298

H          x =  3.258149  y = -4.112947  z = -1.373676 angstrom
           Maximum rank =  0   Radius =  0.325 angstrom
                   Q00  =   0.077917

H          x =  3.896149  y = -2.471947  z = -1.240676 angstrom
           Maximum rank =  0   Radius =  0.325 angstrom
                   Q00  =   0.084198

H          x =  3.863149  y = -3.500947  z =  0.190324 angstrom
           Maximum rank =  0   Radius =  0.325 angstrom
                   Q00  =   0.080578

H          x =  0.771582  y = -4.541512  z = -0.240086 angstrom
           Maximum rank =  0   Radius =  0.325 angstrom
                   Q00  =   0.078750

H          x =  1.443399  y = -3.925884  z =  1.328384 angstrom
           Maximum rank =  0   Radius =  0.325 angstrom
                   Q00  =   0.081871

Total multipoles referred to origin at
           x =   0.000000,  y =    0.000000,  z =    0.000000 angstrom
                   Q00  =  -0.000000

Finished at 19:2:44 on 27 Apr 2020

  DMA results are available in the Python driver through the
	  variable('DMA DISTRIBUTED MULTIPOLES')
  and
	  variable('DMA TOTAL MULTIPOLES')
  commands.

    Psi4 stopped on: Monday, 27 April 2020 07:02PM
    Psi4 wall time for execution: 0:03:10.54

*** Psi4 exiting successfully. Buy a developer a beer!
