                               Psi4 1.3.2 release

  ==> Input File <==

--------------------------------------------------------------------------
import numpy as np
set {scf_type pk
basis cc-pvdz
d_convergence 10
gdma_switch   0
gdma_limit    0
gdma_origin   [ 0.0,  0.0,  0.0 ]
}
molecule test {
    units Angstrom
    0 1
    --
    0 1
    C                1.263875899616887    -1.418538057682721     0.059350042173334
    C                1.028875899616887    -2.685538057682721    -0.764649957826666
    C                2.587875899616887    -1.366538057682721     0.809350042173334
    H                1.201875899616887    -0.555538057682721    -0.607649957826666
    H                0.461875899616887    -1.312538057682721     0.787350042173334
    H                1.229875899616887    -3.546538057682722    -0.134649957826666
    H                2.623875899616887    -2.205538057682721     1.505350042173334
    H                3.413875899616887    -1.452538057682721     0.102350042173334
    H                1.705425899616887    -2.717858057682721    -1.631386957826666
    H               -0.025684100383113    -2.711528057682722    -1.076469957826666
    H                2.672015899616887    -0.414398057682721     1.353736042173335
    C               -1.168124100383113     1.518461942317279     0.038350042173334
    C               -1.945124100383113     2.153461942317278     1.198350042173334
    C               -1.759124100383114     1.805461942317279    -1.332649957826666
    H               -0.143124100383113     1.893461942317279     0.054350042173334
    H               -1.109124100383113     0.444461942317279     0.159350042173334
    H               -2.993124100383113     1.873461942317279     1.112350042173334
    H               -1.786124100383113     2.868461942317279    -1.556649957826666
    H               -1.154124100383113     1.308461942317279    -2.091649957826665
    H               -2.773124100383113     1.408461942317279    -1.382649957826666
    H               -1.542234100383113     1.788361942317279     2.154586042173335
    H               -1.880454100383113     3.250711942317278     1.155236042173335

}
e, wfn = energy('scf', return_wfn=True)
gdma(wfn)
dmavals = variable('DMA DISTRIBUTED MULTIPOLES')
charges = np.array(dmavals)
print(charges)
np.save('SSI-002LYS-007ILE-1-dimer.npy', np.array(charges))--------------------------------------------------------------------------

*** tstart() called on ds3
*** at Mon Apr 27 16:34:13 2020

   => Loading Basis Set <=

    Name: CC-PVDZ
    Role: ORBITAL
    Keyword: BASIS
    atoms 1-3, 12-14  entry C          line   138 file /theoryfs2/ds/metcalf/miniconda2/envs/tf2gpu/share/psi4/basis/cc-pvdz.gbs
    atoms 4-11, 15-22 entry H          line    22 file /theoryfs2/ds/metcalf/miniconda2/envs/tf2gpu/share/psi4/basis/cc-pvdz.gbs

         ---------------------------------------------------------
                                   SCF
               by Justin Turney, Rob Parrish, Andy Simmonett
                          and Daniel G. A. Smith
                              RHF Reference
                        1 Threads,    500 MiB Core
         ---------------------------------------------------------

  ==> Geometry <==

    Molecular point group: c1
    Full point group: C1

    Geometry (in Angstrom), charge = 0, multiplicity = 1:

       Center              X                  Y                   Z               Mass
    ------------   -----------------  -----------------  -----------------  -----------------
         C            1.263875899617    -1.418538057683     0.059350042173    12.000000000000
         C            1.028875899617    -2.685538057683    -0.764649957827    12.000000000000
         C            2.587875899617    -1.366538057683     0.809350042173    12.000000000000
         H            1.201875899617    -0.555538057683    -0.607649957827     1.007825032230
         H            0.461875899617    -1.312538057683     0.787350042173     1.007825032230
         H            1.229875899617    -3.546538057683    -0.134649957827     1.007825032230
         H            2.623875899617    -2.205538057683     1.505350042173     1.007825032230
         H            3.413875899617    -1.452538057683     0.102350042173     1.007825032230
         H            1.705425899617    -2.717858057683    -1.631386957827     1.007825032230
         H           -0.025684100383    -2.711528057683    -1.076469957827     1.007825032230
         H            2.672015899617    -0.414398057683     1.353736042173     1.007825032230
         C           -1.168124100383     1.518461942317     0.038350042173    12.000000000000
         C           -1.945124100383     2.153461942317     1.198350042173    12.000000000000
         C           -1.759124100383     1.805461942317    -1.332649957827    12.000000000000
         H           -0.143124100383     1.893461942317     0.054350042173     1.007825032230
         H           -1.109124100383     0.444461942317     0.159350042173     1.007825032230
         H           -2.993124100383     1.873461942317     1.112350042173     1.007825032230
         H           -1.786124100383     2.868461942317    -1.556649957827     1.007825032230
         H           -1.154124100383     1.308461942317    -2.091649957827     1.007825032230
         H           -2.773124100383     1.408461942317    -1.382649957827     1.007825032230
         H           -1.542234100383     1.788361942317     2.154586042173     1.007825032230
         H           -1.880454100383     3.250711942317     1.155236042173     1.007825032230

  Running in c1 symmetry.

  Rotational constants: A =      0.13955  B =      0.02892  C =      0.02602 [cm^-1]
  Rotational constants: A =   4183.73536  B =    866.90780  C =    780.02487 [MHz]
  Nuclear repulsion =  236.131225341796466

  Charge       = 0
  Multiplicity = 1
  Electrons    = 52
  Nalpha       = 26
  Nbeta        = 26

  ==> Algorithm <==

  SCF Algorithm Type is PK.
  DIIS enabled.
  MOM disabled.
  Fractional occupation disabled.
  Guess Type is SAD.
  Energy threshold   = 1.00e-06
  Density threshold  = 1.00e-10
  Integral threshold = 0.00e+00

  ==> Primary Basis <==

  Basis Set: CC-PVDZ
    Blend: CC-PVDZ
    Number of shells: 84
    Number of basis function: 164
    Number of Cartesian functions: 170
    Spherical Harmonics?: true
    Max angular momentum: 2

  ==> Pre-Iterations <==

   -------------------------------------------------------
    Irrep   Nso     Nmo     Nalpha   Nbeta   Ndocc  Nsocc
   -------------------------------------------------------
     A        164     164       0       0       0       0
   -------------------------------------------------------
    Total     164     164      26      26      26       0
   -------------------------------------------------------

  ==> Integral Setup <==

  Using integral reordering PK algorithm.
  Sizing the integral batches needed.
  Building batch lookup table.
   Calculation information:
      Number of atoms:                  22
      Number of AO shells:              84
      Number of primitives:            212
      Number of atomic orbitals:       170
      Number of basis functions:       164

      Integral cutoff                 1.00e-12
      Number of threads:                 1

	Batch   1 pq = [       0,    9405] index = [             0,44231715] size =     44231715
	Batch   2 pq = [    9405,   13530] index = [      44231715,91537215] size =     47305500
  Task number: 9
  Buffer size: 11059200
  Buffer per thread: 2
  We computed 5216035 shell quartets total.
  Whereas there are 6374235 unique shell quartets.

  ==> DiskJK: Disk-Based J/K Matrices <==

    J tasked:                  Yes
    K tasked:                  Yes
    wK tasked:                  No
    Memory [MiB]:              375
    Schwarz Cutoff:          1E-12

    OpenMP threads:              1

  Minimum eigenvalue in the overlap matrix is 5.2818254314E-03.
  Using Symmetric Orthogonalization.

  SCF Guess: Superposition of Atomic Densities via on-the-fly atomic UHF.

  ==> Iterations <==

                        Total Energy        Delta E     RMS |[F,P]|

   @RHF iter SAD:  -235.38050292975078   -2.35381e+02   0.00000e+00
   @RHF iter   1:  -236.31664136283172   -9.36138e-01   3.50137e-03 DIIS
   @RHF iter   2:  -236.50398665415244   -1.87345e-01   1.52049e-03 DIIS
   @RHF iter   3:  -236.53745461800122   -3.34680e-02   3.05985e-04 DIIS
   @RHF iter   4:  -236.54008245597515   -2.62784e-03   5.02688e-05 DIIS
   @RHF iter   5:  -236.54013590364116   -5.34477e-05   1.38611e-05 DIIS
   @RHF iter   6:  -236.54014020139894   -4.29776e-06   2.29226e-06 DIIS
   @RHF iter   7:  -236.54014033074759   -1.29349e-07   4.38586e-07 DIIS
   @RHF iter   8:  -236.54014033689458   -6.14699e-09   8.36214e-08 DIIS
   @RHF iter   9:  -236.54014033715404   -2.59462e-10   1.94584e-08 DIIS
   @RHF iter  10:  -236.54014033716686   -1.28182e-11   6.40290e-09 DIIS
   @RHF iter  11:  -236.54014033716729   -4.26326e-13   1.22759e-09 DIIS
   @RHF iter  12:  -236.54014033716865   -1.36424e-12   2.07638e-10 DIIS
   @RHF iter  13:  -236.54014033716737    1.27898e-12   5.41841e-11 DIIS
  Energy and wave function converged.

  ==> Post-Iterations <==

    Orbital Energies [Eh]
    ---------------------

    Doubly Occupied:

       1A    -11.218162     2A    -11.217606     3A    -11.217576
       4A    -11.216957     5A    -11.216356     6A    -11.213600
       7A     -1.054628     8A     -1.052699     9A     -0.926121
      10A     -0.925341    11A     -0.799889    12A     -0.792022
      13A     -0.626674    14A     -0.624101    15A     -0.597283
      16A     -0.592577    17A     -0.552090    18A     -0.551405
      19A     -0.533990    20A     -0.531608    21A     -0.478550
      22A     -0.472440    23A     -0.470340    24A     -0.467811
      25A     -0.463367    26A     -0.461593

    Virtual:

      27A      0.166611    28A      0.192868    29A      0.208520
      30A      0.212165    31A      0.219367    32A      0.245017
      33A      0.246676    34A      0.256775    35A      0.269302
      36A      0.275976    37A      0.284558    38A      0.298116
      39A      0.304752    40A      0.305665    41A      0.322923
      42A      0.332720    43A      0.372405    44A      0.374269
      45A      0.425272    46A      0.438751    47A      0.568595
      48A      0.579752    49A      0.592434    50A      0.607423
      51A      0.609622    52A      0.613612    53A      0.614831
      54A      0.622631    55A      0.635527    56A      0.752787
      57A      0.778459    58A      0.794350    59A      0.799135
      60A      0.810162    61A      0.849690    62A      0.865479
      63A      0.878014    64A      0.887980    65A      0.889351
      66A      0.890679    67A      0.897012    68A      0.898167
      69A      0.899813    70A      0.902283    71A      0.905242
      72A      0.911732    73A      0.918033    74A      0.929935
      75A      0.935158    76A      0.951709    77A      0.970644
      78A      0.976529    79A      0.987458    80A      1.011083
      81A      1.120825    82A      1.127410    83A      1.128364
      84A      1.162584    85A      1.198238    86A      1.230870
      87A      1.373662    88A      1.391576    89A      1.464543
      90A      1.472415    91A      1.481310    92A      1.492903
      93A      1.510569    94A      1.562571    95A      1.610048
      96A      1.642771    97A      1.673138    98A      1.682639
      99A      1.684996   100A      1.694702   101A      1.700596
     102A      1.708856   103A      1.850289   104A      1.868151
     105A      1.871446   106A      1.878850   107A      1.883929
     108A      1.899630   109A      1.905572   110A      1.912839
     111A      1.922227   112A      1.924644   113A      1.941436
     114A      1.951826   115A      1.960550   116A      1.975191
     117A      1.983316   118A      1.985948   119A      1.987601
     120A      1.991633   121A      1.995363   122A      2.005500
     123A      2.012006   124A      2.019919   125A      2.041938
     126A      2.055477   127A      2.132722   128A      2.139472
     129A      2.153659   130A      2.164761   131A      2.283139
     132A      2.286176   133A      2.293016   134A      2.310742
     135A      2.328035   136A      2.336962   137A      2.342177
     138A      2.351240   139A      2.489265   140A      2.492598
     141A      2.533337   142A      2.545327   143A      2.589295
     144A      2.594658   145A      2.611973   146A      2.619719
     147A      2.626079   148A      2.638583   149A      2.747643
     150A      2.753164   151A      2.767043   152A      2.773729
     153A      2.785350   154A      2.787611   155A      2.806547
     156A      2.819699   157A      2.917192   158A      2.926441
     159A      2.950550   160A      2.963684   161A      2.967649
     162A      2.983995   163A      3.063233   164A      3.103721

    Final Occupation by Irrep:
              A
    DOCC [    26 ]

  @RHF Final Energy:  -236.54014033716737

   => Energetics <=

    Nuclear Repulsion Energy =            236.1312253417964655
    One-Electron Energy =                -784.7931529498580403
    Two-Electron Energy =                 312.1217872708941741
    Total Energy =                       -236.5401403371673723

Computation Completed

Properties will be evaluated at   0.000000,   0.000000,   0.000000 [a0]

Properties computed using the SCF density matrix

  Nuclear Dipole Moment: [e a0]
     X:    -0.0921      Y:    -0.0756      Z:    -0.0904

  Electronic Dipole Moment: [e a0]
     X:     0.1023      Y:     0.0651      Z:     0.0956

  Dipole Moment: [e a0]
     X:     0.0101      Y:    -0.0105      Z:     0.0052     Total:     0.0155

  Dipole Moment: [D]
     X:     0.0257      Y:    -0.0268      Z:     0.0132     Total:     0.0394

*** tstop() called on ds3 at Mon Apr 27 16:35:00 2020
Module time:
	user time   =      28.30 seconds =       0.47 minutes
	system time =      12.35 seconds =       0.21 minutes
	total time  =         47 seconds =       0.78 minutes
Total time:
	user time   =      28.30 seconds =       0.47 minutes
	system time =      12.35 seconds =       0.21 minutes
	total time  =         47 seconds =       0.78 minutes
                                     G D M A

                                 by Anthony Stone

                           version 2.2.06, 22 June 2011

               Distributed Multipoles from Gaussian wavefunctions

Starting at 16:35:0 on 27 Apr 2020

Using SCF density matrix from file ./SSI/SSI-002LYS-007ILE-1-dimer.test.27274.fchk

                         Distributed Multipole Analysis

Standard DMA

Positions and radii in angstrom
Multipole moments in atomic units, ea_0^k for rank k

C          x =  1.263876  y = -1.418538  z =  0.059350 angstrom
           Maximum rank =  0   Radius =  0.650 angstrom
                   Q00  =  -0.089702

C          x =  1.028876  y = -2.685538  z = -0.764650 angstrom
           Maximum rank =  0   Radius =  0.650 angstrom
                   Q00  =  -0.243545

C          x =  2.587876  y = -1.366538  z =  0.809350 angstrom
           Maximum rank =  0   Radius =  0.650 angstrom
                   Q00  =  -0.225542

H          x =  1.201876  y = -0.555538  z = -0.607650 angstrom
           Maximum rank =  0   Radius =  0.325 angstrom
                   Q00  =   0.043714

H          x =  0.461876  y = -1.312538  z =  0.787350 angstrom
           Maximum rank =  0   Radius =  0.325 angstrom
                   Q00  =   0.041725

H          x =  1.229876  y = -3.546538  z = -0.134650 angstrom
           Maximum rank =  0   Radius =  0.325 angstrom
                   Q00  =   0.074984

H          x =  2.623876  y = -2.205538  z =  1.505350 angstrom
           Maximum rank =  0   Radius =  0.325 angstrom
                   Q00  =   0.075845

H          x =  3.413876  y = -1.452538  z =  0.102350 angstrom
           Maximum rank =  0   Radius =  0.325 angstrom
                   Q00  =   0.075239

H          x =  1.705426  y = -2.717858  z = -1.631387 angstrom
           Maximum rank =  0   Radius =  0.325 angstrom
                   Q00  =   0.079705

H          x = -0.025684  y = -2.711528  z = -1.076470 angstrom
           Maximum rank =  0   Radius =  0.325 angstrom
                   Q00  =   0.084025

H          x =  2.672016  y = -0.414398  z =  1.353736 angstrom
           Maximum rank =  0   Radius =  0.325 angstrom
                   Q00  =   0.084637

C          x = -1.168124  y =  1.518462  z =  0.038350 angstrom
           Maximum rank =  0   Radius =  0.650 angstrom
                   Q00  =  -0.077883

C          x = -1.945124  y =  2.153462  z =  1.198350 angstrom
           Maximum rank =  0   Radius =  0.650 angstrom
                   Q00  =  -0.245033

C          x = -1.759124  y =  1.805462  z = -1.332650 angstrom
           Maximum rank =  0   Radius =  0.650 angstrom
                   Q00  =  -0.244354

H          x = -0.143124  y =  1.893462  z =  0.054350 angstrom
           Maximum rank =  0   Radius =  0.325 angstrom
                   Q00  =   0.042594

H          x = -1.109124  y =  0.444462  z =  0.159350 angstrom
           Maximum rank =  0   Radius =  0.325 angstrom
                   Q00  =   0.051900

H          x = -2.993124  y =  1.873462  z =  1.112350 angstrom
           Maximum rank =  0   Radius =  0.325 angstrom
                   Q00  =   0.075502

H          x = -1.786124  y =  2.868462  z = -1.556650 angstrom
           Maximum rank =  0   Radius =  0.325 angstrom
                   Q00  =   0.077553

H          x = -1.154124  y =  1.308462  z = -2.091650 angstrom
           Maximum rank =  0   Radius =  0.325 angstrom
                   Q00  =   0.081823

H          x = -2.773124  y =  1.408462  z = -1.382650 angstrom
           Maximum rank =  0   Radius =  0.325 angstrom
                   Q00  =   0.074120

H          x = -1.542234  y =  1.788362  z =  2.154586 angstrom
           Maximum rank =  0   Radius =  0.325 angstrom
                   Q00  =   0.084165

H          x = -1.880454  y =  3.250712  z =  1.155236 angstrom
           Maximum rank =  0   Radius =  0.325 angstrom
                   Q00  =   0.078528

Total multipoles referred to origin at
           x =   0.000000,  y =    0.000000,  z =    0.000000 angstrom
                   Q00  =  -0.000000

Finished at 16:35:1 on 27 Apr 2020

  DMA results are available in the Python driver through the
	  variable('DMA DISTRIBUTED MULTIPOLES')
  and
	  variable('DMA TOTAL MULTIPOLES')
  commands.

    Psi4 stopped on: Monday, 27 April 2020 04:35PM
    Psi4 wall time for execution: 0:00:47.34

*** Psi4 exiting successfully. Buy a developer a beer!
