                               Psi4 1.3.2 release

  ==> Input File <==

--------------------------------------------------------------------------
import numpy as np
set {scf_type pk
basis cc-pvdz
d_convergence 10
gdma_switch   0
gdma_limit    0
gdma_origin   [ 0.0,  0.0,  0.0 ]
}
molecule test {
    units Angstrom
    0 1
    --
    0 1
    C                0.148203151908117     1.847040163032970     1.164725244903929
    C                0.939203151908117     2.780040163032970     2.074725244903930
    H               -0.250796848091883     1.016040163032971     1.734725244903929
    H               -0.683796848091883     2.394040163032971     0.721725244903929
    H                0.793203151908117     1.473040163032970     0.367725244903929
    H                0.255203151908117     3.144040163032971     2.835725244903929
    H                1.784403151908117     2.267040163032970     2.556875244903929
    H                1.294543151908117     3.647450163032970     1.499103244903929
    C               -0.224796848091883    -1.503959836967030    -0.562274755096071
    C               -1.550796848091883    -2.133959836967029    -0.990274755096071
    C                0.675203151908117    -1.091959836967030    -1.734274755096071
    H               -0.426796848091883    -0.636959836967030     0.061725244903929
    H                0.312203151908117    -2.225959836967029     0.050725244903929
    H               -1.913796848091883    -2.736959836967030    -0.158274755096071
    H               -1.394796848091883    -2.816959836967030    -1.822274755096071
    H                0.226203151908117    -0.280959836967030    -2.302274755096071
    H                1.606203151908117    -0.683959836967030    -1.335274755096071
    H               -2.344839848091883    -1.410989836967030    -1.228631755096071
    H                0.897463151908117    -1.924889836967030    -2.417527755096071

}
e, wfn = energy('scf', return_wfn=True)
gdma(wfn)
dmavals = variable('DMA DISTRIBUTED MULTIPOLES')
charges = np.array(dmavals)
print(charges)
np.save('SSI-009LEU-039ARG-1-dimer.npy', np.array(charges))--------------------------------------------------------------------------

*** tstart() called on ds3
*** at Mon Apr 27 22:54:16 2020

   => Loading Basis Set <=

    Name: CC-PVDZ
    Role: ORBITAL
    Keyword: BASIS
    atoms 1-2, 9-11  entry C          line   138 file /theoryfs2/ds/metcalf/miniconda2/envs/tf2gpu/share/psi4/basis/cc-pvdz.gbs
    atoms 3-8, 12-19 entry H          line    22 file /theoryfs2/ds/metcalf/miniconda2/envs/tf2gpu/share/psi4/basis/cc-pvdz.gbs

         ---------------------------------------------------------
                                   SCF
               by Justin Turney, Rob Parrish, Andy Simmonett
                          and Daniel G. A. Smith
                              RHF Reference
                        1 Threads,    500 MiB Core
         ---------------------------------------------------------

  ==> Geometry <==

    Molecular point group: c1
    Full point group: C1

    Geometry (in Angstrom), charge = 0, multiplicity = 1:

       Center              X                  Y                   Z               Mass
    ------------   -----------------  -----------------  -----------------  -----------------
         C            0.148203151908     1.847040163033     1.164725244904    12.000000000000
         C            0.939203151908     2.780040163033     2.074725244904    12.000000000000
         H           -0.250796848092     1.016040163033     1.734725244904     1.007825032230
         H           -0.683796848092     2.394040163033     0.721725244904     1.007825032230
         H            0.793203151908     1.473040163033     0.367725244904     1.007825032230
         H            0.255203151908     3.144040163033     2.835725244904     1.007825032230
         H            1.784403151908     2.267040163033     2.556875244904     1.007825032230
         H            1.294543151908     3.647450163033     1.499103244904     1.007825032230
         C           -0.224796848092    -1.503959836967    -0.562274755096    12.000000000000
         C           -1.550796848092    -2.133959836967    -0.990274755096    12.000000000000
         C            0.675203151908    -1.091959836967    -1.734274755096    12.000000000000
         H           -0.426796848092    -0.636959836967     0.061725244904     1.007825032230
         H            0.312203151908    -2.225959836967     0.050725244904     1.007825032230
         H           -1.913796848092    -2.736959836967    -0.158274755096     1.007825032230
         H           -1.394796848092    -2.816959836967    -1.822274755096     1.007825032230
         H            0.226203151908    -0.280959836967    -2.302274755096     1.007825032230
         H            1.606203151908    -0.683959836967    -1.335274755096     1.007825032230
         H           -2.344839848092    -1.410989836967    -1.228631755096     1.007825032230
         H            0.897463151908    -1.924889836967    -2.417527755096     1.007825032230

  Running in c1 symmetry.

  Rotational constants: A =      0.25053  B =      0.03625  C =      0.03326 [cm^-1]
  Rotational constants: A =   7510.71753  B =   1086.70839  C =    997.09258 [MHz]
  Nuclear repulsion =  176.095092781566962

  Charge       = 0
  Multiplicity = 1
  Electrons    = 44
  Nalpha       = 22
  Nbeta        = 22

  ==> Algorithm <==

  SCF Algorithm Type is PK.
  DIIS enabled.
  MOM disabled.
  Fractional occupation disabled.
  Guess Type is SAD.
  Energy threshold   = 1.00e-06
  Density threshold  = 1.00e-10
  Integral threshold = 0.00e+00

  ==> Primary Basis <==

  Basis Set: CC-PVDZ
    Blend: CC-PVDZ
    Number of shells: 72
    Number of basis function: 140
    Number of Cartesian functions: 145
    Spherical Harmonics?: true
    Max angular momentum: 2

  ==> Pre-Iterations <==

   -------------------------------------------------------
    Irrep   Nso     Nmo     Nalpha   Nbeta   Ndocc  Nsocc
   -------------------------------------------------------
     A        140     140       0       0       0       0
   -------------------------------------------------------
    Total     140     140      22      22      22       0
   -------------------------------------------------------

  ==> Integral Setup <==

  Using integral reordering PK algorithm.
  Sizing the integral batches needed.
  Building batch lookup table.
   Calculation information:
      Number of atoms:                  19
      Number of AO shells:              72
      Number of primitives:            180
      Number of atomic orbitals:       145
      Number of basis functions:       140

      Integral cutoff                 1.00e-12
      Number of threads:                 1

	Batch   1 pq = [       0,    9405] index = [             0,44231715] size =     44231715
	Batch   2 pq = [    9405,    9870] index = [      44231715,48713385] size =      4481670
  Task number: 5
  Buffer size: 11059200
  Buffer per thread: 2
  We computed 2790399 shell quartets total.
  Whereas there are 3454506 unique shell quartets.

  ==> DiskJK: Disk-Based J/K Matrices <==

    J tasked:                  Yes
    K tasked:                  Yes
    wK tasked:                  No
    Memory [MiB]:              375
    Schwarz Cutoff:          1E-12

    OpenMP threads:              1

  Minimum eigenvalue in the overlap matrix is 5.3883426172E-03.
  Using Symmetric Orthogonalization.

  SCF Guess: Superposition of Atomic Densities via on-the-fly atomic UHF.

  ==> Iterations <==

                        Total Energy        Delta E     RMS |[F,P]|

   @RHF iter SAD:  -196.36619394125987   -1.96366e+02   0.00000e+00
   @RHF iter   1:  -197.31035196151691   -9.44158e-01   3.80492e-03 DIIS
   @RHF iter   2:  -197.47039061312202   -1.60039e-01   1.63810e-03 DIIS
   @RHF iter   3:  -197.49871470868183   -2.83241e-02   3.25155e-04 DIIS
   @RHF iter   4:  -197.50094208759461   -2.22738e-03   4.77781e-05 DIIS
   @RHF iter   5:  -197.50098048450204   -3.83969e-05   1.46209e-05 DIIS
   @RHF iter   6:  -197.50098375831578   -3.27381e-06   2.45773e-06 DIIS
   @RHF iter   7:  -197.50098386653133   -1.08216e-07   4.62971e-07 DIIS
   @RHF iter   8:  -197.50098387106237   -4.53105e-09   1.18083e-07 DIIS
   @RHF iter   9:  -197.50098387135270   -2.90328e-10   3.86445e-08 DIIS
   @RHF iter  10:  -197.50098387138684   -3.41345e-11   8.38895e-09 DIIS
   @RHF iter  11:  -197.50098387138922   -2.38742e-12   1.58164e-09 DIIS
   @RHF iter  12:  -197.50098387138897    2.55795e-13   2.95704e-10 DIIS
   @RHF iter  13:  -197.50098387138928   -3.12639e-13   5.07219e-11 DIIS
  Energy and wave function converged.

  ==> Post-Iterations <==

    Orbital Energies [Eh]
    ---------------------

    Doubly Occupied:

       1A    -11.219143     2A    -11.217951     3A    -11.217022
       4A    -11.215216     5A    -11.213766     6A     -1.049850
       7A     -1.020988     8A     -0.924934     9A     -0.838005
      10A     -0.797048    11A     -0.623136    12A     -0.600798
      13A     -0.599969    14A     -0.590490    15A     -0.548113
      16A     -0.533387    17A     -0.503398    18A     -0.489572
      19A     -0.485500    20A     -0.469706    21A     -0.467891
      22A     -0.461953

    Virtual:

      23A      0.172930    24A      0.193884    25A      0.217219
      26A      0.227749    27A      0.231393    28A      0.253551
      29A      0.257087    30A      0.270030    31A      0.271451
      32A      0.283907    33A      0.289751    34A      0.303054
      35A      0.316784    36A      0.337268    37A      0.371995
      38A      0.422169    39A      0.429056    40A      0.570708
      41A      0.590916    42A      0.600694    43A      0.607436
      44A      0.612274    45A      0.634434    46A      0.641563
      47A      0.661114    48A      0.691606    49A      0.755310
      50A      0.772542    51A      0.810239    52A      0.852366
      53A      0.874619    54A      0.887814    55A      0.892283
      56A      0.893053    57A      0.895260    58A      0.898303
      59A      0.905206    60A      0.909695    61A      0.910968
      62A      0.916578    63A      0.920565    64A      0.942648
      65A      0.946870    66A      0.964125    67A      1.006012
      68A      1.027883    69A      1.114937    70A      1.121240
      71A      1.124590    72A      1.154491    73A      1.226801
      74A      1.288347    75A      1.391918    76A      1.444903
      77A      1.468264    78A      1.478242    79A      1.487102
      80A      1.516039    81A      1.582181    82A      1.662245
      83A      1.668935    84A      1.679402    85A      1.693124
      86A      1.696801    87A      1.713435    88A      1.841673
      89A      1.857475    90A      1.861658    91A      1.871111
      92A      1.884316    93A      1.903927    94A      1.922501
      95A      1.926931    96A      1.944077    97A      1.947291
      98A      1.949862    99A      1.956924   100A      1.964991
     101A      1.966839   102A      1.972697   103A      1.984317
     104A      2.005642   105A      2.019980   106A      2.056696
     107A      2.062000   108A      2.092210   109A      2.120494
     110A      2.134272   111A      2.158507   112A      2.269767
     113A      2.300562   114A      2.322260   115A      2.329011
     116A      2.340464   117A      2.377592   118A      2.453189
     119A      2.468455   120A      2.483761   121A      2.534691
     122A      2.557311   123A      2.571377   124A      2.578636
     125A      2.608150   126A      2.645770   127A      2.760925
     128A      2.769380   129A      2.774806   130A      2.787282
     131A      2.795309   132A      2.835817   133A      2.853144
     134A      2.855541   135A      2.924464   136A      2.945715
     137A      2.954008   138A      2.973257   139A      2.995616
     140A      3.075627

    Final Occupation by Irrep:
              A
    DOCC [    22 ]

  @RHF Final Energy:  -197.50098387138928

   => Energetics <=

    Nuclear Repulsion Energy =            176.0950927815669615
    One-Electron Energy =                -613.0164824669898280
    Two-Electron Energy =                 239.4204058140335860
    Total Energy =                       -197.5009838713892805

Computation Completed

Properties will be evaluated at   0.000000,   0.000000,   0.000000 [a0]

Properties computed using the SCF density matrix

  Nuclear Dipole Moment: [e a0]
     X:     0.1449      Y:     1.1475      Z:     0.5288

  Electronic Dipole Moment: [e a0]
     X:    -0.1477      Y:    -1.1191      Z:    -0.4701

  Dipole Moment: [e a0]
     X:    -0.0028      Y:     0.0284      Z:     0.0587     Total:     0.0653

  Dipole Moment: [D]
     X:    -0.0070      Y:     0.0721      Z:     0.1493     Total:     0.1659

*** tstop() called on ds3 at Mon Apr 27 22:54:38 2020
Module time:
	user time   =      16.02 seconds =       0.27 minutes
	system time =       6.50 seconds =       0.11 minutes
	total time  =         22 seconds =       0.37 minutes
Total time:
	user time   =      16.02 seconds =       0.27 minutes
	system time =       6.50 seconds =       0.11 minutes
	total time  =         22 seconds =       0.37 minutes
                                     G D M A

                                 by Anthony Stone

                           version 2.2.06, 22 June 2011

               Distributed Multipoles from Gaussian wavefunctions

Starting at 22:54:38 on 27 Apr 2020

Using SCF density matrix from file ./SSI/SSI-009LEU-039ARG-1-dimer.test.24859.fchk

                         Distributed Multipole Analysis

Standard DMA

Positions and radii in angstrom
Multipole moments in atomic units, ea_0^k for rank k

C          x =  0.148203  y =  1.847040  z =  1.164725 angstrom
           Maximum rank =  0   Radius =  0.650 angstrom
                   Q00  =  -0.250984

C          x =  0.939203  y =  2.780040  z =  2.074725 angstrom
           Maximum rank =  0   Radius =  0.650 angstrom
                   Q00  =  -0.221171

H          x = -0.250797  y =  1.016040  z =  1.734725 angstrom
           Maximum rank =  0   Radius =  0.325 angstrom
                   Q00  =   0.078049

H          x = -0.683797  y =  2.394040  z =  0.721725 angstrom
           Maximum rank =  0   Radius =  0.325 angstrom
                   Q00  =   0.080101

H          x =  0.793203  y =  1.473040  z =  0.367725 angstrom
           Maximum rank =  0   Radius =  0.325 angstrom
                   Q00  =   0.078150

H          x =  0.255203  y =  3.144040  z =  2.835725 angstrom
           Maximum rank =  0   Radius =  0.325 angstrom
                   Q00  =   0.078109

H          x =  1.784403  y =  2.267040  z =  2.556875 angstrom
           Maximum rank =  0   Radius =  0.325 angstrom
                   Q00  =   0.081093

H          x =  1.294543  y =  3.647450  z =  1.499103 angstrom
           Maximum rank =  0   Radius =  0.325 angstrom
                   Q00  =   0.078875

C          x = -0.224797  y = -1.503960  z = -0.562275 angstrom
           Maximum rank =  0   Radius =  0.650 angstrom
                   Q00  =  -0.066083

C          x = -1.550797  y = -2.133960  z = -0.990275 angstrom
           Maximum rank =  0   Radius =  0.650 angstrom
                   Q00  =  -0.267171

C          x =  0.675203  y = -1.091960  z = -1.734275 angstrom
           Maximum rank =  0   Radius =  0.650 angstrom
                   Q00  =  -0.254146

H          x = -0.426797  y = -0.636960  z =  0.061725 angstrom
           Maximum rank =  0   Radius =  0.325 angstrom
                   Q00  =   0.059122

H          x =  0.312203  y = -2.225960  z =  0.050725 angstrom
           Maximum rank =  0   Radius =  0.325 angstrom
                   Q00  =   0.048933

H          x = -1.913797  y = -2.736960  z = -0.158275 angstrom
           Maximum rank =  0   Radius =  0.325 angstrom
                   Q00  =   0.082567

H          x = -1.394797  y = -2.816960  z = -1.822275 angstrom
           Maximum rank =  0   Radius =  0.325 angstrom
                   Q00  =   0.076571

H          x =  0.226203  y = -0.280960  z = -2.302275 angstrom
           Maximum rank =  0   Radius =  0.325 angstrom
                   Q00  =   0.076583

H          x =  1.606203  y = -0.683960  z = -1.335275 angstrom
           Maximum rank =  0   Radius =  0.325 angstrom
                   Q00  =   0.080275

H          x = -2.344840  y = -1.410990  z = -1.228632 angstrom
           Maximum rank =  0   Radius =  0.325 angstrom
                   Q00  =   0.080414

H          x =  0.897463  y = -1.924890  z = -2.417528 angstrom
           Maximum rank =  0   Radius =  0.325 angstrom
                   Q00  =   0.080714

Total multipoles referred to origin at
           x =   0.000000,  y =    0.000000,  z =    0.000000 angstrom
                   Q00  =  -0.000000

Finished at 22:54:38 on 27 Apr 2020

  DMA results are available in the Python driver through the
	  variable('DMA DISTRIBUTED MULTIPOLES')
  and
	  variable('DMA TOTAL MULTIPOLES')
  commands.

    Psi4 stopped on: Monday, 27 April 2020 10:54PM
    Psi4 wall time for execution: 0:00:21.91

*** Psi4 exiting successfully. Buy a developer a beer!
