                               Psi4 1.3.2 release

  ==> Input File <==

--------------------------------------------------------------------------
import numpy as np
set {scf_type pk
basis cc-pvdz
d_convergence 10
gdma_switch   0
gdma_limit    0
gdma_origin   [ 0.0,  0.0,  0.0 ]
}
molecule test {
    units Angstrom
    -1 1
    --
    -1 1
    C               -0.018347183192088    -0.435128604705179     2.664628371976696
    C               -0.043347183192088    -1.934128604705179     2.966628371976696
    C                0.698652816807912     0.471871395294821     3.668628371976696
    H                0.470652816807912    -0.308128604705179     1.699628371976696
    H               -1.035347183192088    -0.079128604705179     2.547628371976696
    H               -0.537347183192088    -2.079128604705179     3.925628371976696
    H                1.727652816807912     0.136871395294821     3.780628371976696
    H                0.980735816807912    -2.334725604705179     2.994489371976696
    H               -0.653405183192088    -2.444200604705179     2.206591371976696
    H                0.720338816807912     1.499779395294821     3.277560371976696
    H                0.214158816807912     0.440777395294821     4.655694371976696
    C               -0.470347183192088     0.811871395294821    -0.947371628023304
    C               -1.565347183192088     1.714871395294821    -1.508371628023304
    C                0.262652816807912     0.008871395294821    -2.014371628023304
    O               -0.224347183192088    -0.088128604705179    -3.164371628023304
    O                1.341652816807912    -0.532128604705179    -1.686371628023304
    H                0.254652816807912     1.448871395294821    -0.433371628023304
    H               -0.878347183192088     0.133871395294821    -0.204371628023304
    H               -2.340347183192088     1.112871395294821    -1.980371628023304
    H               -1.120347183192088     2.364871395294821    -2.263371628023304
    H               -2.008355183192088     2.352054395294821    -0.728793628023304

}
e, wfn = energy('scf', return_wfn=True)
gdma(wfn)
dmavals = variable('DMA DISTRIBUTED MULTIPOLES')
charges = np.array(dmavals)
print(charges)
np.save('SSI-024LEU-029GLU-1-dimer.npy', np.array(charges))--------------------------------------------------------------------------

*** tstart() called on ds3
*** at Sun Apr 26 22:21:48 2020

   => Loading Basis Set <=

    Name: CC-PVDZ
    Role: ORBITAL
    Keyword: BASIS
    atoms 1-3, 12-14  entry C          line   138 file /theoryfs2/ds/metcalf/miniconda2/envs/tf2gpu/share/psi4/basis/cc-pvdz.gbs
    atoms 4-11, 17-21 entry H          line    22 file /theoryfs2/ds/metcalf/miniconda2/envs/tf2gpu/share/psi4/basis/cc-pvdz.gbs
    atoms 15-16       entry O          line   198 file /theoryfs2/ds/metcalf/miniconda2/envs/tf2gpu/share/psi4/basis/cc-pvdz.gbs

         ---------------------------------------------------------
                                   SCF
               by Justin Turney, Rob Parrish, Andy Simmonett
                          and Daniel G. A. Smith
                              RHF Reference
                        1 Threads,    500 MiB Core
         ---------------------------------------------------------

  ==> Geometry <==

    Molecular point group: c1
    Full point group: C1

    Geometry (in Angstrom), charge = -1, multiplicity = 1:

       Center              X                  Y                   Z               Mass
    ------------   -----------------  -----------------  -----------------  -----------------
         C           -0.018347183192    -0.435128604705     2.664628371977    12.000000000000
         C           -0.043347183192    -1.934128604705     2.966628371977    12.000000000000
         C            0.698652816808     0.471871395295     3.668628371977    12.000000000000
         H            0.470652816808    -0.308128604705     1.699628371977     1.007825032230
         H           -1.035347183192    -0.079128604705     2.547628371977     1.007825032230
         H           -0.537347183192    -2.079128604705     3.925628371977     1.007825032230
         H            1.727652816808     0.136871395295     3.780628371977     1.007825032230
         H            0.980735816808    -2.334725604705     2.994489371977     1.007825032230
         H           -0.653405183192    -2.444200604705     2.206591371977     1.007825032230
         H            0.720338816808     1.499779395295     3.277560371977     1.007825032230
         H            0.214158816808     0.440777395295     4.655694371977     1.007825032230
         C           -0.470347183192     0.811871395295    -0.947371628023    12.000000000000
         C           -1.565347183192     1.714871395295    -1.508371628023    12.000000000000
         C            0.262652816808     0.008871395295    -2.014371628023    12.000000000000
         O           -0.224347183192    -0.088128604705    -3.164371628023    15.994914619570
         O            1.341652816808    -0.532128604705    -1.686371628023    15.994914619570
         H            0.254652816808     1.448871395295    -0.433371628023     1.007825032230
         H           -0.878347183192     0.133871395295    -0.204371628023     1.007825032230
         H           -2.340347183192     1.112871395295    -1.980371628023     1.007825032230
         H           -1.120347183192     2.364871395295    -2.263371628023     1.007825032230
         H           -2.008355183192     2.352054395295    -0.728793628023     1.007825032230

  Running in c1 symmetry.

  Rotational constants: A =      0.08671  B =      0.02065  C =      0.01862 [cm^-1]
  Rotational constants: A =   2599.43480  B =    619.19809  C =    558.20116 [MHz]
  Nuclear repulsion =  354.043769985531071

  Charge       = -1
  Multiplicity = 1
  Electrons    = 66
  Nalpha       = 33
  Nbeta        = 33

  ==> Algorithm <==

  SCF Algorithm Type is PK.
  DIIS enabled.
  MOM disabled.
  Fractional occupation disabled.
  Guess Type is SAD.
  Energy threshold   = 1.00e-06
  Density threshold  = 1.00e-10
  Integral threshold = 0.00e+00

  ==> Primary Basis <==

  Basis Set: CC-PVDZ
    Blend: CC-PVDZ
    Number of shells: 87
    Number of basis function: 177
    Number of Cartesian functions: 185
    Spherical Harmonics?: true
    Max angular momentum: 2

  ==> Pre-Iterations <==

   -------------------------------------------------------
    Irrep   Nso     Nmo     Nalpha   Nbeta   Ndocc  Nsocc
   -------------------------------------------------------
     A        177     177       0       0       0       0
   -------------------------------------------------------
    Total     177     177      33      33      33       0
   -------------------------------------------------------

  ==> Integral Setup <==

  Using integral reordering PK algorithm.
  Sizing the integral batches needed.
  Building batch lookup table.
   Calculation information:
      Number of atoms:                  21
      Number of AO shells:              87
      Number of primitives:            241
      Number of atomic orbitals:       185
      Number of basis functions:       177

      Integral cutoff                 1.00e-12
      Number of threads:                 1

	Batch   1 pq = [       0,    9405] index = [             0,44231715] size =     44231715
	Batch   2 pq = [    9405,   13301] index = [      44231715,88464951] size =     44233236
	Batch   3 pq = [   13301,   15753] index = [      88464951,124086381] size =     35621430
  Task number: 12
  Buffer size: 11059200
  Buffer per thread: 2
  We computed 5593646 shell quartets total.
  Whereas there are 7328706 unique shell quartets.

  ==> DiskJK: Disk-Based J/K Matrices <==

    J tasked:                  Yes
    K tasked:                  Yes
    wK tasked:                  No
    Memory [MiB]:              375
    Schwarz Cutoff:          1E-12

    OpenMP threads:              1

  Minimum eigenvalue in the overlap matrix is 3.6394053577E-03.
  Using Symmetric Orthogonalization.

  SCF Guess: Superposition of Atomic Densities via on-the-fly atomic UHF.

  ==> Iterations <==

                        Total Energy        Delta E     RMS |[F,P]|

   @RHF iter SAD:  -382.85165975532146   -3.82852e+02   0.00000e+00
   @RHF iter   1:  -384.22616750215201   -1.37451e+00   4.41367e-03 DIIS
   @RHF iter   2:  -384.47552825751967   -2.49361e-01   2.40764e-03 DIIS
   @RHF iter   3:  -384.54515364235675   -6.96254e-02   3.91907e-04 DIIS
   @RHF iter   4:  -384.54855762940247   -3.40399e-03   1.53386e-04 DIIS
   @RHF iter   5:  -384.54903417334896   -4.76544e-04   2.27572e-05 DIIS
   @RHF iter   6:  -384.54904853584031   -1.43625e-05   6.10650e-06 DIIS
   @RHF iter   7:  -384.54904938337256   -8.47532e-07   2.22273e-06 DIIS
   @RHF iter   8:  -384.54904947298047   -8.96079e-08   7.26109e-07 DIIS
   @RHF iter   9:  -384.54904948349974   -1.05193e-08   1.97058e-07 DIIS
   @RHF iter  10:  -384.54904948480691   -1.30717e-09   5.34771e-08 DIIS
   @RHF iter  11:  -384.54904948494146   -1.34548e-10   1.65302e-08 DIIS
   @RHF iter  12:  -384.54904948495783   -1.63709e-11   6.29102e-09 DIIS
   @RHF iter  13:  -384.54904948495914   -1.30740e-12   2.50451e-09 DIIS
   @RHF iter  14:  -384.54904948495988   -7.38964e-13   7.73611e-10 DIIS
   @RHF iter  15:  -384.54904948496090   -1.02318e-12   2.32429e-10 DIIS
   @RHF iter  16:  -384.54904948495908    1.81899e-12   8.49799e-11 DIIS
  Energy and wave function converged.

  ==> Post-Iterations <==

    Orbital Energies [Eh]
    ---------------------

    Doubly Occupied:

       1A    -20.258637     2A    -20.253246     3A    -11.130530
       4A    -11.126809     5A    -11.118474     6A    -11.111361
       7A    -11.069128     8A    -11.051991     9A     -1.145874
      10A     -1.031910    11A     -0.957508    12A     -0.869681
      13A     -0.836767    14A     -0.703321    15A     -0.698265
      16A     -0.531326    17A     -0.506624    18A     -0.499445
      19A     -0.460327    20A     -0.456919    21A     -0.446877
      22A     -0.429178    23A     -0.387974    24A     -0.382475
      25A     -0.374625    26A     -0.367945    27A     -0.360167
      28A     -0.352264    29A     -0.323023    30A     -0.297145
      31A     -0.179592    32A     -0.167852    33A     -0.157124

    Virtual:

      34A      0.268853    35A      0.310382    36A      0.311359
      37A      0.326456    38A      0.347315    39A      0.358655
      40A      0.368316    41A      0.382990    42A      0.390669
      43A      0.399787    44A      0.409035    45A      0.425609
      46A      0.433107    47A      0.465493    48A      0.496838
      49A      0.523973    50A      0.559535    51A      0.608988
      52A      0.659545    53A      0.692399    54A      0.700479
      55A      0.709284    56A      0.711084    57A      0.722268
      58A      0.736097    59A      0.762248    60A      0.857822
      61A      0.869664    62A      0.893618    63A      0.900194
      64A      0.933356    65A      0.958883    66A      0.969284
      67A      0.976047    68A      0.983657    69A      0.987464
      70A      0.992933    71A      0.996105    72A      0.996717
      73A      1.005659    74A      1.021718    75A      1.036461
      76A      1.042496    77A      1.047167    78A      1.051438
      79A      1.058141    80A      1.065622    81A      1.089434
      82A      1.125687    83A      1.141730    84A      1.158926
      85A      1.210706    86A      1.234906    87A      1.277131
      88A      1.298480    89A      1.314799    90A      1.332494
      91A      1.395185    92A      1.457103    93A      1.472115
      94A      1.492936    95A      1.531394    96A      1.565599
      97A      1.580585    98A      1.602658    99A      1.613631
     100A      1.636275   101A      1.644549   102A      1.664993
     103A      1.714203   104A      1.740033   105A      1.767257
     106A      1.769808   107A      1.783933   108A      1.824492
     109A      1.834807   110A      1.866230   111A      1.933125
     112A      1.957623   113A      1.962207   114A      1.975413
     115A      1.990419   116A      2.004957   117A      2.032379
     118A      2.045554   119A      2.056891   120A      2.060304
     121A      2.067595   122A      2.073657   123A      2.089032
     124A      2.092837   125A      2.097477   126A      2.117516
     127A      2.131698   128A      2.149068   129A      2.172325
     130A      2.181806   131A      2.213458   132A      2.223877
     133A      2.228514   134A      2.249059   135A      2.258129
     136A      2.336816   137A      2.370349   138A      2.376578
     139A      2.389362   140A      2.427281   141A      2.441350
     142A      2.466803   143A      2.521870   144A      2.530087
     145A      2.596684   146A      2.617973   147A      2.625324
     148A      2.665242   149A      2.689609   150A      2.703953
     151A      2.717674   152A      2.728814   153A      2.779199
     154A      2.805062   155A      2.836577   156A      2.844001
     157A      2.872215   158A      2.892346   159A      2.920525
     160A      2.996592   161A      3.010442   162A      3.024538
     163A      3.051287   164A      3.061437   165A      3.072326
     166A      3.133543   167A      3.184623   168A      3.248585
     169A      3.294358   170A      3.308844   171A      3.366328
     172A      3.641631   173A      3.785476   174A      3.830722
     175A      4.053744   176A      4.086961   177A      4.208796

    Final Occupation by Irrep:
              A
    DOCC [    33 ]

  @RHF Final Energy:  -384.54904948495908

   => Energetics <=

    Nuclear Repulsion Energy =            354.0437699855310711
    One-Electron Energy =               -1237.0968684402143936
    Two-Electron Energy =                 498.5040489697242378
    Total Energy =                       -384.5490494849590846

Computation Completed

Properties will be evaluated at   0.000000,   0.000000,   0.000000 [a0]

Properties computed using the SCF density matrix

  Nuclear Dipole Moment: [e a0]
     X:    -3.9370      Y:     2.1013      Z:    18.2363

  Electronic Dipole Moment: [e a0]
     X:     2.9346      Y:    -1.5317      Z:   -13.9124

  Dipole Moment: [e a0]
     X:    -1.0023      Y:     0.5696      Z:     4.3239     Total:     4.4749

  Dipole Moment: [D]
     X:    -2.5477      Y:     1.4478      Z:    10.9902     Total:    11.3742

*** tstop() called on ds3 at Sun Apr 26 22:22:41 2020
Module time:
	user time   =      37.00 seconds =       0.62 minutes
	system time =      17.70 seconds =       0.29 minutes
	total time  =         53 seconds =       0.88 minutes
Total time:
	user time   =      37.00 seconds =       0.62 minutes
	system time =      17.70 seconds =       0.29 minutes
	total time  =         53 seconds =       0.88 minutes
                                     G D M A

                                 by Anthony Stone

                           version 2.2.06, 22 June 2011

               Distributed Multipoles from Gaussian wavefunctions

Starting at 22:22:41 on 26 Apr 2020

Using SCF density matrix from file ./SSI/SSI-024LEU-029GLU-1-dimer.test.5544.fchk

                         Distributed Multipole Analysis

Standard DMA

Positions and radii in angstrom
Multipole moments in atomic units, ea_0^k for rank k

C          x = -0.018347  y = -0.435129  z =  2.664628 angstrom
           Maximum rank =  0   Radius =  0.650 angstrom
                   Q00  =  -0.049479

C          x = -0.043347  y = -1.934129  z =  2.966628 angstrom
           Maximum rank =  0   Radius =  0.650 angstrom
                   Q00  =  -0.248233

C          x =  0.698653  y =  0.471871  z =  3.668628 angstrom
           Maximum rank =  0   Radius =  0.650 angstrom
                   Q00  =  -0.249773

H          x =  0.470653  y = -0.308129  z =  1.699628 angstrom
           Maximum rank =  0   Radius =  0.325 angstrom
                   Q00  =   0.075187

H          x = -1.035347  y = -0.079129  z =  2.547628 angstrom
           Maximum rank =  0   Radius =  0.325 angstrom
                   Q00  =   0.035871

H          x = -0.537347  y = -2.079129  z =  3.925628 angstrom
           Maximum rank =  0   Radius =  0.325 angstrom
                   Q00  =   0.046968

H          x =  1.727653  y =  0.136871  z =  3.780628 angstrom
           Maximum rank =  0   Radius =  0.325 angstrom
                   Q00  =   0.072405

H          x =  0.980736  y = -2.334726  z =  2.994489 angstrom
           Maximum rank =  0   Radius =  0.325 angstrom
                   Q00  =   0.078607

H          x = -0.653405  y = -2.444201  z =  2.206591 angstrom
           Maximum rank =  0   Radius =  0.325 angstrom
                   Q00  =   0.095217

H          x =  0.720339  y =  1.499779  z =  3.277560 angstrom
           Maximum rank =  0   Radius =  0.325 angstrom
                   Q00  =   0.087127

H          x =  0.214159  y =  0.440777  z =  4.655694 angstrom
           Maximum rank =  0   Radius =  0.325 angstrom
                   Q00  =   0.053457

C          x = -0.470347  y =  0.811871  z = -0.947372 angstrom
           Maximum rank =  0   Radius =  0.650 angstrom
                   Q00  =  -0.171400

C          x = -1.565347  y =  1.714871  z = -1.508372 angstrom
           Maximum rank =  0   Radius =  0.650 angstrom
                   Q00  =  -0.218342

C          x =  0.262653  y =  0.008871  z = -2.014372 angstrom
           Maximum rank =  0   Radius =  0.650 angstrom
                   Q00  =   1.042672

O          x = -0.224347  y = -0.088129  z = -3.164372 angstrom
           Maximum rank =  0   Radius =  0.650 angstrom
                   Q00  =  -0.968637

O          x =  1.341653  y = -0.532129  z = -1.686372 angstrom
           Maximum rank =  0   Radius =  0.650 angstrom
                   Q00  =  -0.946297

H          x =  0.254653  y =  1.448871  z = -0.433372 angstrom
           Maximum rank =  0   Radius =  0.325 angstrom
                   Q00  =   0.031251

H          x = -0.878347  y =  0.133871  z = -0.204372 angstrom
           Maximum rank =  0   Radius =  0.325 angstrom
                   Q00  =   0.056258

H          x = -2.340347  y =  1.112871  z = -1.980372 angstrom
           Maximum rank =  0   Radius =  0.325 angstrom
                   Q00  =   0.084482

H          x = -1.120347  y =  2.364871  z = -2.263372 angstrom
           Maximum rank =  0   Radius =  0.325 angstrom
                   Q00  =   0.079912

H          x = -2.008355  y =  2.352054  z = -0.728794 angstrom
           Maximum rank =  0   Radius =  0.325 angstrom
                   Q00  =   0.012749

Total multipoles referred to origin at
           x =   0.000000,  y =    0.000000,  z =    0.000000 angstrom
                   Q00  =  -1.000000

Finished at 22:22:41 on 26 Apr 2020

  DMA results are available in the Python driver through the
	  variable('DMA DISTRIBUTED MULTIPOLES')
  and
	  variable('DMA TOTAL MULTIPOLES')
  commands.

    Psi4 stopped on: Sunday, 26 April 2020 10:22PM
    Psi4 wall time for execution: 0:00:52.92

*** Psi4 exiting successfully. Buy a developer a beer!
