                               Psi4 1.3.2 release

  ==> Input File <==

--------------------------------------------------------------------------
import numpy as np
set {scf_type pk
basis cc-pvdz
d_convergence 10
gdma_switch   0
gdma_limit    0
gdma_origin   [ 0.0,  0.0,  0.0 ]
}
molecule test {
    units Angstrom
    -1 1
    --
    -1 1
    C               -3.082806208345354     1.532089470571425    -0.043720966371867
    C               -1.877806208345354     1.056089470571425     0.758279033628133
    O               -1.551806208345354    -0.150910529428575     0.708279033628133
    O               -1.263806208345354     1.895089470571425     1.453279033628133
    H               -2.941806208345354     2.579089470571425    -0.321720966371867
    H               -3.977806208345354     1.476089470571425     0.580279033628133
    H               -3.240616208345355     0.944789470571425    -0.960330966371867
    C                1.310193791654646    -2.296910529428575    -0.243720966371867
    C                2.005193791654646    -1.061910529428575    -0.768720966371867
    O                2.942193791654645    -1.147910529428575    -1.559720966371867
    N                1.556193791654646     0.101089470571425    -0.332720966371867
    H                2.029193791654646     0.941089470571425    -0.625720966371867
    H                0.739193791654646     0.136089470571425     0.268279033628133
    H                0.259193791654646    -2.053910529428575    -0.082720966371867
    H                1.737193791654646    -2.582910529428575     0.718279033628133
    H                1.353623791654646    -3.132207529428575    -0.958140966371867

}
e, wfn = energy('scf', return_wfn=True)
gdma(wfn)
dmavals = variable('DMA DISTRIBUTED MULTIPOLES')
charges = np.array(dmavals)
print(charges)
np.save('SSI-076ASP-188GLN-1-dimer.npy', np.array(charges))--------------------------------------------------------------------------

*** tstart() called on ds3
*** at Tue Apr 28 08:09:24 2020

   => Loading Basis Set <=

    Name: CC-PVDZ
    Role: ORBITAL
    Keyword: BASIS
    atoms 1-2, 8-9   entry C          line   138 file /theoryfs2/ds/metcalf/miniconda2/envs/tf2gpu/share/psi4/basis/cc-pvdz.gbs
    atoms 3-4, 10    entry O          line   198 file /theoryfs2/ds/metcalf/miniconda2/envs/tf2gpu/share/psi4/basis/cc-pvdz.gbs
    atoms 5-7, 12-16 entry H          line    22 file /theoryfs2/ds/metcalf/miniconda2/envs/tf2gpu/share/psi4/basis/cc-pvdz.gbs
    atoms 11         entry N          line   168 file /theoryfs2/ds/metcalf/miniconda2/envs/tf2gpu/share/psi4/basis/cc-pvdz.gbs

         ---------------------------------------------------------
                                   SCF
               by Justin Turney, Rob Parrish, Andy Simmonett
                          and Daniel G. A. Smith
                              RHF Reference
                        1 Threads,    500 MiB Core
         ---------------------------------------------------------

  ==> Geometry <==

    Molecular point group: c1
    Full point group: C1

    Geometry (in Angstrom), charge = -1, multiplicity = 1:

       Center              X                  Y                   Z               Mass
    ------------   -----------------  -----------------  -----------------  -----------------
         C           -3.082806208345     1.532089470571    -0.043720966372    12.000000000000
         C           -1.877806208345     1.056089470571     0.758279033628    12.000000000000
         O           -1.551806208345    -0.150910529429     0.708279033628    15.994914619570
         O           -1.263806208345     1.895089470571     1.453279033628    15.994914619570
         H           -2.941806208345     2.579089470571    -0.321720966372     1.007825032230
         H           -3.977806208345     1.476089470571     0.580279033628     1.007825032230
         H           -3.240616208345     0.944789470571    -0.960330966372     1.007825032230
         C            1.310193791655    -2.296910529429    -0.243720966372    12.000000000000
         C            2.005193791655    -1.061910529429    -0.768720966372    12.000000000000
         O            2.942193791655    -1.147910529429    -1.559720966372    15.994914619570
         N            1.556193791655     0.101089470571    -0.332720966372    14.003074004430
         H            2.029193791655     0.941089470571    -0.625720966372     1.007825032230
         H            0.739193791655     0.136089470571     0.268279033628     1.007825032230
         H            0.259193791655    -2.053910529429    -0.082720966372     1.007825032230
         H            1.737193791655    -2.582910529429     0.718279033628     1.007825032230
         H            1.353623791655    -3.132207529429    -0.958140966372     1.007825032230

  Running in c1 symmetry.

  Rotational constants: A =      0.13946  B =      0.02230  C =      0.02121 [cm^-1]
  Rotational constants: A =   4181.02905  B =    668.39434  C =    635.95238 [MHz]
  Nuclear repulsion =  347.486341814031277

  Charge       = -1
  Multiplicity = 1
  Electrons    = 64
  Nalpha       = 32
  Nbeta        = 32

  ==> Algorithm <==

  SCF Algorithm Type is PK.
  DIIS enabled.
  MOM disabled.
  Fractional occupation disabled.
  Guess Type is SAD.
  Energy threshold   = 1.00e-06
  Density threshold  = 1.00e-10
  Integral threshold = 0.00e+00

  ==> Primary Basis <==

  Basis Set: CC-PVDZ
    Blend: CC-PVDZ
    Number of shells: 72
    Number of basis function: 152
    Number of Cartesian functions: 160
    Spherical Harmonics?: true
    Max angular momentum: 2

  ==> Pre-Iterations <==

   -------------------------------------------------------
    Irrep   Nso     Nmo     Nalpha   Nbeta   Ndocc  Nsocc
   -------------------------------------------------------
     A        152     152       0       0       0       0
   -------------------------------------------------------
    Total     152     152      32      32      32       0
   -------------------------------------------------------

  ==> Integral Setup <==

  Using integral reordering PK algorithm.
  Sizing the integral batches needed.
  Building batch lookup table.
   Calculation information:
      Number of atoms:                  16
      Number of AO shells:              72
      Number of primitives:            216
      Number of atomic orbitals:       160
      Number of basis functions:       152

      Integral cutoff                 1.00e-12
      Number of threads:                 1

	Batch   1 pq = [       0,    9405] index = [             0,44231715] size =     44231715
	Batch   2 pq = [    9405,   11628] index = [      44231715,67611006] size =     23379291
  Task number: 7
  Buffer size: 11059200
  Buffer per thread: 2
  We computed 2607965 shell quartets total.
  Whereas there are 3454506 unique shell quartets.

  ==> DiskJK: Disk-Based J/K Matrices <==

    J tasked:                  Yes
    K tasked:                  Yes
    wK tasked:                  No
    Memory [MiB]:              375
    Schwarz Cutoff:          1E-12

    OpenMP threads:              1

  Minimum eigenvalue in the overlap matrix is 4.5722059655E-03.
  Using Symmetric Orthogonalization.

  SCF Guess: Superposition of Atomic Densities via on-the-fly atomic UHF.

  ==> Iterations <==

                        Total Energy        Delta E     RMS |[F,P]|

   @RHF iter SAD:  -433.45584572736630   -4.33456e+02   0.00000e+00
   @RHF iter   1:  -434.94942496508867   -1.49358e+00   5.43277e-03 DIIS
   @RHF iter   2:  -435.18039994895713   -2.30975e-01   3.17387e-03 DIIS
   @RHF iter   3:  -435.26132051383780   -8.09206e-02   4.72152e-04 DIIS
   @RHF iter   4:  -435.26453613758230   -3.21562e-03   1.84286e-04 DIIS
   @RHF iter   5:  -435.26508215214915   -5.46015e-04   3.76160e-05 DIIS
   @RHF iter   6:  -435.26510972313741   -2.75710e-05   1.95990e-05 DIIS
   @RHF iter   7:  -435.26511614528283   -6.42215e-06   5.27768e-06 DIIS
   @RHF iter   8:  -435.26511713436861   -9.89086e-07   2.27700e-06 DIIS
   @RHF iter   9:  -435.26511728519785   -1.50829e-07   8.66805e-07 DIIS
   @RHF iter  10:  -435.26511730669728   -2.14994e-08   2.21651e-07 DIIS
   @RHF iter  11:  -435.26511730785057   -1.15330e-09   9.29744e-08 DIIS
   @RHF iter  12:  -435.26511730796517   -1.14596e-10   2.51409e-08 DIIS
   @RHF iter  13:  -435.26511730797904   -1.38698e-11   6.05635e-09 DIIS
   @RHF iter  14:  -435.26511730798131   -2.27374e-12   1.96527e-09 DIIS
   @RHF iter  15:  -435.26511730798023    1.08002e-12   6.32027e-10 DIIS
   @RHF iter  16:  -435.26511730798211   -1.87583e-12   2.38889e-10 DIIS
   @RHF iter  17:  -435.26511730798092    1.19371e-12   1.13194e-10 DIIS
   @RHF iter  18:  -435.26511730798103   -1.13687e-13   4.30018e-11 DIIS
  Energy and wave function converged.

  ==> Post-Iterations <==

    Orbital Energies [Eh]
    ---------------------

    Doubly Occupied:

       1A    -20.373680     2A    -20.285444     3A    -20.279278
       4A    -15.442063     5A    -11.215511     6A    -11.138111
       7A    -11.110315     8A    -11.066632     9A     -1.239052
      10A     -1.172769    11A     -1.076047    12A     -1.058132
      13A     -0.868619    14A     -0.812036    15A     -0.658371
      16A     -0.583268    17A     -0.525219    18A     -0.520330
      19A     -0.484109    20A     -0.439627    21A     -0.429646
      22A     -0.427327    23A     -0.422489    24A     -0.420412
      25A     -0.391440    26A     -0.360877    27A     -0.326026
      28A     -0.282468    29A     -0.268450    30A     -0.206633
      31A     -0.193832    32A     -0.184791

    Virtual:

      33A      0.311541    34A      0.328528    35A      0.340572
      36A      0.346040    37A      0.378714    38A      0.388603
      39A      0.404308    40A      0.429404    41A      0.452436
      42A      0.471111    43A      0.517621    44A      0.558013
      45A      0.589236    46A      0.680763    47A      0.699411
      48A      0.719729    49A      0.771025    50A      0.774851
      51A      0.808707    52A      0.833950    53A      0.848958
      54A      0.861267    55A      0.871176    56A      0.896062
      57A      0.940487    58A      0.954683    59A      0.987305
      60A      1.005555    61A      1.012254    62A      1.018721
      63A      1.021448    64A      1.039313    65A      1.053188
      66A      1.068807    67A      1.083217    68A      1.115841
      69A      1.151981    70A      1.164791    71A      1.196420
      72A      1.218421    73A      1.253871    74A      1.283396
      75A      1.326223    76A      1.357015    77A      1.430076
      78A      1.459313    79A      1.476169    80A      1.494474
      81A      1.516698    82A      1.532107    83A      1.550682
      84A      1.557744    85A      1.577383    86A      1.591909
      87A      1.600135    88A      1.643639    89A      1.655176
      90A      1.699078    91A      1.741578    92A      1.778371
      93A      1.788389    94A      1.826488    95A      1.829225
      96A      1.863387    97A      1.958240    98A      1.989232
      99A      2.022701   100A      2.033720   101A      2.040247
     102A      2.047977   103A      2.055444   104A      2.079670
     105A      2.105447   106A      2.119664   107A      2.131234
     108A      2.181294   109A      2.189371   110A      2.221259
     111A      2.235329   112A      2.322466   113A      2.327717
     114A      2.374472   115A      2.394210   116A      2.404142
     117A      2.432508   118A      2.526363   119A      2.548201
     120A      2.588621   121A      2.627650   122A      2.665280
     123A      2.690507   124A      2.704305   125A      2.719630
     126A      2.756921   127A      2.780047   128A      2.856700
     129A      2.882185   130A      2.894700   131A      2.943943
     132A      2.954423   133A      2.965151   134A      2.992498
     135A      3.124075   136A      3.217848   137A      3.220151
     138A      3.252908   139A      3.266000   140A      3.280857
     141A      3.336336   142A      3.463646   143A      3.612707
     144A      3.639671   145A      3.666130   146A      3.755643
     147A      3.815534   148A      3.992234   149A      4.031359
     150A      4.049166   151A      4.068157   152A      4.180307

    Final Occupation by Irrep:
              A
    DOCC [    32 ]

  @RHF Final Energy:  -435.26511730798103

   => Energetics <=

    Nuclear Repulsion Energy =            347.4863418140312774
    One-Electron Energy =               -1296.9769070264660513
    Two-Electron Energy =                 514.2254479044537447
    Total Energy =                       -435.2651173079810860

Computation Completed

Properties will be evaluated at   0.000000,   0.000000,   0.000000 [a0]

Properties computed using the SCF density matrix

  Nuclear Dipole Moment: [e a0]
     X:    -3.7930      Y:    -1.5835      Z:    -1.2915

  Electronic Dipole Moment: [e a0]
     X:     4.3200      Y:     0.8329      Z:     0.5129

  Dipole Moment: [e a0]
     X:     0.5270      Y:    -0.7506      Z:    -0.7786     Total:     1.2031

  Dipole Moment: [D]
     X:     1.3395      Y:    -1.9079      Z:    -1.9791     Total:     3.0580

*** tstop() called on ds3 at Tue Apr 28 08:10:10 2020
Module time:
	user time   =      21.99 seconds =       0.37 minutes
	system time =      10.06 seconds =       0.17 minutes
	total time  =         46 seconds =       0.77 minutes
Total time:
	user time   =      21.99 seconds =       0.37 minutes
	system time =      10.06 seconds =       0.17 minutes
	total time  =         46 seconds =       0.77 minutes
                                     G D M A

                                 by Anthony Stone

                           version 2.2.06, 22 June 2011

               Distributed Multipoles from Gaussian wavefunctions

Starting at 8:10:10 on 28 Apr 2020

Using SCF density matrix from file ./SSI/SSI-076ASP-188GLN-1-dimer.test.9370.fchk

                         Distributed Multipole Analysis

Standard DMA

Positions and radii in angstrom
Multipole moments in atomic units, ea_0^k for rank k

C          x = -3.082806  y =  1.532089  z = -0.043721 angstrom
           Maximum rank =  0   Radius =  0.650 angstrom
                   Q00  =  -0.276172

C          x = -1.877806  y =  1.056089  z =  0.758279 angstrom
           Maximum rank =  0   Radius =  0.650 angstrom
                   Q00  =   0.940796

O          x = -1.551806  y = -0.150911  z =  0.708279 angstrom
           Maximum rank =  0   Radius =  0.650 angstrom
                   Q00  =  -0.933419

O          x = -1.263806  y =  1.895089  z =  1.453279 angstrom
           Maximum rank =  0   Radius =  0.650 angstrom
                   Q00  =  -0.914704

H          x = -2.941806  y =  2.579089  z = -0.321721 angstrom
           Maximum rank =  0   Radius =  0.325 angstrom
                   Q00  =   0.059363

H          x = -3.977806  y =  1.476089  z =  0.580279 angstrom
           Maximum rank =  0   Radius =  0.325 angstrom
                   Q00  =   0.086581

H          x = -3.240616  y =  0.944789  z = -0.960331 angstrom
           Maximum rank =  0   Radius =  0.325 angstrom
                   Q00  =   0.057030

C          x =  1.310194  y = -2.296911  z = -0.243721 angstrom
           Maximum rank =  0   Radius =  0.650 angstrom
                   Q00  =  -0.266438

C          x =  2.005194  y = -1.061911  z = -0.768721 angstrom
           Maximum rank =  0   Radius =  0.650 angstrom
                   Q00  =   0.840612

O          x =  2.942194  y = -1.147911  z = -1.559721 angstrom
           Maximum rank =  0   Radius =  0.650 angstrom
                   Q00  =  -0.851452

N          x =  1.556194  y =  0.101089  z = -0.332721 angstrom
           Maximum rank =  0   Radius =  0.650 angstrom
                   Q00  =  -0.534735

H          x =  2.029194  y =  0.941089  z = -0.625721 angstrom
           Maximum rank =  0   Radius =  0.325 angstrom
                   Q00  =   0.199156

H          x =  0.739194  y =  0.136089  z =  0.268279 angstrom
           Maximum rank =  0   Radius =  0.325 angstrom
                   Q00  =   0.261321

H          x =  0.259194  y = -2.053911  z = -0.082721 angstrom
           Maximum rank =  0   Radius =  0.325 angstrom
                   Q00  =   0.130283

H          x =  1.737194  y = -2.582911  z =  0.718279 angstrom
           Maximum rank =  0   Radius =  0.325 angstrom
                   Q00  =   0.109669

H          x =  1.353624  y = -3.132208  z = -0.958141 angstrom
           Maximum rank =  0   Radius =  0.325 angstrom
                   Q00  =   0.092108

Total multipoles referred to origin at
           x =   0.000000,  y =    0.000000,  z =    0.000000 angstrom
                   Q00  =  -1.000000

Finished at 8:10:10 on 28 Apr 2020

  DMA results are available in the Python driver through the
	  variable('DMA DISTRIBUTED MULTIPOLES')
  and
	  variable('DMA TOTAL MULTIPOLES')
  commands.

    Psi4 stopped on: Tuesday, 28 April 2020 08:10AM
    Psi4 wall time for execution: 0:00:45.58

*** Psi4 exiting successfully. Buy a developer a beer!
