                               Psi4 1.3.2 release

  ==> Input File <==

--------------------------------------------------------------------------
import numpy as np
set {scf_type pk
basis cc-pvdz
d_convergence 10
gdma_switch   0
gdma_limit    0
gdma_origin   [ 0.0,  0.0,  0.0 ]
}
molecule test {
    units Angstrom
    0 1
    --
    0 1
    C               -0.494800350849421    -2.105606705432742     1.993216279084665
    C               -0.258800350849421    -2.321606705432743     3.502216279084666
    H               -1.178800350849420    -2.860606705432742     1.603216279084666
    H               -0.926800350849421    -1.122606705432742     1.809216279084666
    H                0.442199649150579    -2.143606705432742     1.439216279084666
    H                0.493199649150579    -1.599606705432742     3.828216279084666
    H                0.119669649150579    -3.333476705432742     3.709306279084666
    H               -1.182961350849421    -2.151946705432742     4.074176279084666
    C               -1.139800350849421     0.159393294567258    -3.374783720915334
    C                0.674199649150579     0.832393294567258     0.467216279084666
    C                1.279199649150579    -0.019606705432742    -0.453783720915334
    C               -0.509800350849421     1.476393294567258     0.132216279084666
    C                0.693199649150579    -0.229606705432742    -1.700783720915334
    C               -1.095800350849421     1.249393294567258    -1.112783720915334
    C               -0.505800350849421     0.392393294567258    -2.035783720915334
    O                1.248199649150579     1.045393294567258     1.688216279084666
    H                2.208199649150579    -0.515606705432742    -0.206783720915334
    H                2.032199649150579     0.501393294567258     1.818216279084666
    H               -0.973800350849421     2.140393294567258     0.846216279084666
    H                1.183199649150579    -0.880606705432742    -2.412783720915334
    H               -2.014800350849421     1.759393294567258    -1.362783720915335
    H               -0.341800350849421     0.134393294567258    -4.111783720915335
    H               -1.783800350849421     1.002393294567258    -3.625783720915335
    H               -1.713846350849421    -0.776306705432742    -3.445103720915334

}
e, wfn = energy('scf', return_wfn=True)
gdma(wfn)
dmavals = variable('DMA DISTRIBUTED MULTIPOLES')
charges = np.array(dmavals)
print(charges)
np.save('SSI-034ILE-037TYR-1-dimer.npy', np.array(charges))--------------------------------------------------------------------------

*** tstart() called on ds3
*** at Tue Apr 28 20:32:33 2020

   => Loading Basis Set <=

    Name: CC-PVDZ
    Role: ORBITAL
    Keyword: BASIS
    atoms 1-2, 9-15  entry C          line   138 file /theoryfs2/ds/metcalf/miniconda2/envs/tf2gpu/share/psi4/basis/cc-pvdz.gbs
    atoms 3-8, 17-24 entry H          line    22 file /theoryfs2/ds/metcalf/miniconda2/envs/tf2gpu/share/psi4/basis/cc-pvdz.gbs
    atoms 16         entry O          line   198 file /theoryfs2/ds/metcalf/miniconda2/envs/tf2gpu/share/psi4/basis/cc-pvdz.gbs

         ---------------------------------------------------------
                                   SCF
               by Justin Turney, Rob Parrish, Andy Simmonett
                          and Daniel G. A. Smith
                              RHF Reference
                        1 Threads,    500 MiB Core
         ---------------------------------------------------------

  ==> Geometry <==

    Molecular point group: c1
    Full point group: C1

    Geometry (in Angstrom), charge = 0, multiplicity = 1:

       Center              X                  Y                   Z               Mass
    ------------   -----------------  -----------------  -----------------  -----------------
         C           -0.494800350849    -2.105606705433     1.993216279085    12.000000000000
         C           -0.258800350849    -2.321606705433     3.502216279085    12.000000000000
         H           -1.178800350849    -2.860606705433     1.603216279085     1.007825032230
         H           -0.926800350849    -1.122606705433     1.809216279085     1.007825032230
         H            0.442199649151    -2.143606705433     1.439216279085     1.007825032230
         H            0.493199649151    -1.599606705433     3.828216279085     1.007825032230
         H            0.119669649151    -3.333476705433     3.709306279085     1.007825032230
         H           -1.182961350849    -2.151946705433     4.074176279085     1.007825032230
         C           -1.139800350849     0.159393294567    -3.374783720915    12.000000000000
         C            0.674199649151     0.832393294567     0.467216279085    12.000000000000
         C            1.279199649151    -0.019606705433    -0.453783720915    12.000000000000
         C           -0.509800350849     1.476393294567     0.132216279085    12.000000000000
         C            0.693199649151    -0.229606705433    -1.700783720915    12.000000000000
         C           -1.095800350849     1.249393294567    -1.112783720915    12.000000000000
         C           -0.505800350849     0.392393294567    -2.035783720915    12.000000000000
         O            1.248199649151     1.045393294567     1.688216279085    15.994914619570
         H            2.208199649151    -0.515606705433    -0.206783720915     1.007825032230
         H            2.032199649151     0.501393294567     1.818216279085     1.007825032230
         H           -0.973800350849     2.140393294567     0.846216279085     1.007825032230
         H            1.183199649151    -0.880606705433    -2.412783720915     1.007825032230
         H           -2.014800350849     1.759393294567    -1.362783720915     1.007825032230
         H           -0.341800350849     0.134393294567    -4.111783720915     1.007825032230
         H           -1.783800350849     1.002393294567    -3.625783720915     1.007825032230
         H           -1.713846350849    -0.776306705433    -3.445103720915     1.007825032230

  Running in c1 symmetry.

  Rotational constants: A =      0.06127  B =      0.02216  C =      0.01972 [cm^-1]
  Rotational constants: A =   1836.69887  B =    664.36698  C =    591.07314 [MHz]
  Nuclear repulsion =  502.578209201108450

  Charge       = 0
  Multiplicity = 1
  Electrons    = 76
  Nalpha       = 38
  Nbeta        = 38

  ==> Algorithm <==

  SCF Algorithm Type is PK.
  DIIS enabled.
  MOM disabled.
  Fractional occupation disabled.
  Guess Type is SAD.
  Energy threshold   = 1.00e-06
  Density threshold  = 1.00e-10
  Integral threshold = 0.00e+00

  ==> Primary Basis <==

  Basis Set: CC-PVDZ
    Blend: CC-PVDZ
    Number of shells: 102
    Number of basis function: 210
    Number of Cartesian functions: 220
    Spherical Harmonics?: true
    Max angular momentum: 2

  ==> Pre-Iterations <==

   -------------------------------------------------------
    Irrep   Nso     Nmo     Nalpha   Nbeta   Ndocc  Nsocc
   -------------------------------------------------------
     A        210     210       0       0       0       0
   -------------------------------------------------------
    Total     210     210      38      38      38       0
   -------------------------------------------------------

  ==> Integral Setup <==

  Using integral reordering PK algorithm.
  Sizing the integral batches needed.
  Building batch lookup table.
   Calculation information:
      Number of atoms:                  24
      Number of AO shells:             102
      Number of primitives:            290
      Number of atomic orbitals:       220
      Number of basis functions:       210

      Integral cutoff                 1.00e-12
      Number of threads:                 1

	Batch   1 pq = [       0,    9405] index = [             0,44231715] size =     44231715
	Batch   2 pq = [    9405,   13301] index = [      44231715,88464951] size =     44233236
	Batch   3 pq = [   13301,   16290] index = [      88464951,132690195] size =     44225244
	Batch   4 pq = [   16290,   18810] index = [     132690195,176917455] size =     44227260
	Batch   5 pq = [   18810,   21030] index = [     176917455,221140965] size =     44223510
	Batch   6 pq = [   21030,   22155] index = [     221140965,245433090] size =     24292125
  Task number: 23
  Buffer size: 11059200
  Buffer per thread: 2
  We computed 12234407 shell quartets total.
  Whereas there are 13799631 unique shell quartets.

  ==> DiskJK: Disk-Based J/K Matrices <==

    J tasked:                  Yes
    K tasked:                  Yes
    wK tasked:                  No
    Memory [MiB]:              375
    Schwarz Cutoff:          1E-12

    OpenMP threads:              1

  Minimum eigenvalue in the overlap matrix is 3.1967618805E-04.
  Using Symmetric Orthogonalization.

  SCF Guess: Superposition of Atomic Densities via on-the-fly atomic UHF.

  ==> Iterations <==

                        Total Energy        Delta E     RMS |[F,P]|

   @RHF iter SAD:  -422.68060544018249   -4.22681e+02   0.00000e+00
   @RHF iter   1:  -423.60183568631408   -9.21230e-01   2.97681e-03 DIIS
   @RHF iter   2:  -423.81808930492207   -2.16254e-01   1.25729e-03 DIIS
   @RHF iter   3:  -423.85297074586776   -3.48814e-02   2.85999e-04 DIIS
   @RHF iter   4:  -423.85583110851570   -2.86036e-03   1.20593e-04 DIIS
   @RHF iter   5:  -423.85620407627812   -3.72968e-04   2.04390e-05 DIIS
   @RHF iter   6:  -423.85622117728616   -1.71010e-05   6.40665e-06 DIIS
   @RHF iter   7:  -423.85622274839255   -1.57111e-06   2.03456e-06 DIIS
   @RHF iter   8:  -423.85622295295485   -2.04562e-07   7.59904e-07 DIIS
   @RHF iter   9:  -423.85622298297449   -3.00196e-08   2.72447e-07 DIIS
   @RHF iter  10:  -423.85622298763786   -4.66338e-09   1.05663e-07 DIIS
   @RHF iter  11:  -423.85622298880139   -1.16353e-09   4.98644e-08 DIIS
   @RHF iter  12:  -423.85622298908828   -2.86889e-10   2.68809e-08 DIIS
   @RHF iter  13:  -423.85622298916479   -7.65112e-11   8.17502e-09 DIIS
   @RHF iter  14:  -423.85622298917065   -5.85487e-12   2.09794e-09 DIIS
   @RHF iter  15:  -423.85622298917082   -1.70530e-13   6.69013e-10 DIIS
   @RHF iter  16:  -423.85622298917281   -1.98952e-12   1.99633e-10 DIIS
   @RHF iter  17:  -423.85622298917173    1.08002e-12   7.63173e-11 DIIS
  Energy and wave function converged.

  ==> Post-Iterations <==

    Orbital Energies [Eh]
    ---------------------

    Doubly Occupied:

       1A    -20.584530     2A    -11.299035     3A    -11.239086
       4A    -11.237731     5A    -11.233892     6A    -11.232376
       7A    -11.230030     8A    -11.226973     9A    -11.216112
      10A    -11.209544    11A     -1.399242    12A     -1.152107
      13A     -1.039622    14A     -1.017706    15A     -1.007828
      16A     -0.927274    17A     -0.845047    18A     -0.832823
      19A     -0.802440    20A     -0.732503    21A     -0.668467
      22A     -0.641852    23A     -0.608208    24A     -0.596922
      25A     -0.588159    26A     -0.586066    27A     -0.581347
      28A     -0.569777    29A     -0.568242    30A     -0.526240
      31A     -0.499462    32A     -0.494938    33A     -0.485212
      34A     -0.481050    35A     -0.478813    36A     -0.466410
      37A     -0.338315    38A     -0.302497

    Virtual:

      39A      0.128131    40A      0.154308    41A      0.164724
      42A      0.186590    43A      0.206218    44A      0.214971
      45A      0.221448    46A      0.246380    47A      0.251907
      48A      0.262199    49A      0.269358    50A      0.275877
      51A      0.281414    52A      0.292643    53A      0.301288
      54A      0.316502    55A      0.370434    56A      0.377076
      57A      0.395783    58A      0.432212    59A      0.456053
      60A      0.485139    61A      0.496973    62A      0.505493
      63A      0.588225    64A      0.594148    65A      0.598062
      66A      0.614493    67A      0.633099    68A      0.642053
      69A      0.661216    70A      0.668347    71A      0.687087
      72A      0.693349    73A      0.706468    74A      0.732921
      75A      0.740141    76A      0.751875    77A      0.760250
      78A      0.771273    79A      0.779171    80A      0.787675
      81A      0.838502    82A      0.846647    83A      0.849754
      84A      0.853786    85A      0.875035    86A      0.879673
      87A      0.883916    88A      0.894042    89A      0.896529
      90A      0.903553    91A      0.906718    92A      0.919608
      93A      0.929229    94A      0.935918    95A      0.938705
      96A      0.944773    97A      0.970382    98A      0.983741
      99A      0.992101   100A      1.014865   101A      1.032258
     102A      1.054539   103A      1.123455   104A      1.133804
     105A      1.137252   106A      1.146903   107A      1.171260
     108A      1.179529   109A      1.211446   110A      1.226341
     111A      1.246326   112A      1.257909   113A      1.271183
     114A      1.294447   115A      1.303856   116A      1.310170
     117A      1.326629   118A      1.356541   119A      1.367561
     120A      1.383995   121A      1.470273   122A      1.479919
     123A      1.487473   124A      1.510403   125A      1.527387
     126A      1.557695   127A      1.590514   128A      1.617105
     129A      1.621043   130A      1.683174   131A      1.687739
     132A      1.698435   133A      1.701263   134A      1.746782
     135A      1.747164   136A      1.782882   137A      1.809140
     138A      1.822970   139A      1.870254   140A      1.876304
     141A      1.882429   142A      1.893248   143A      1.899511
     144A      1.904947   145A      1.911269   146A      1.920003
     147A      1.932244   148A      1.937921   149A      1.950151
     150A      1.953229   151A      1.957004   152A      1.965531
     153A      1.969140   154A      1.981567   155A      1.989533
     156A      2.015167   157A      2.038852   158A      2.054028
     159A      2.059732   160A      2.067256   161A      2.073297
     162A      2.103035   163A      2.120130   164A      2.142724
     165A      2.153401   166A      2.169102   167A      2.200333
     168A      2.232512   169A      2.261258   170A      2.272241
     171A      2.300780   172A      2.305818   173A      2.325490
     174A      2.335894   175A      2.395990   176A      2.423807
     177A      2.458124   178A      2.461724   179A      2.472401
     180A      2.476280   181A      2.498679   182A      2.536862
     183A      2.551329   184A      2.572283   185A      2.589172
     186A      2.610482   187A      2.645047   188A      2.749766
     189A      2.764145   190A      2.772634   191A      2.793572
     192A      2.798963   193A      2.807353   194A      2.849496
     195A      2.865372   196A      2.867804   197A      2.903909
     198A      2.952121   199A      2.974305   200A      2.988502
     201A      3.006902   202A      3.091793   203A      3.119718
     204A      3.250170   205A      3.283432   206A      3.346829
     207A      3.580088   208A      3.674440   209A      3.975025
     210A      4.193049

    Final Occupation by Irrep:
              A
    DOCC [    38 ]

  @RHF Final Energy:  -423.85622298917173

   => Energetics <=

    Nuclear Repulsion Energy =            502.5782092011084501
    One-Electron Energy =               -1570.9731065401533670
    Two-Electron Energy =                 644.5386743498731903
    Total Energy =                       -423.8562229891717834

Computation Completed

Properties will be evaluated at   0.000000,   0.000000,   0.000000 [a0]

Properties computed using the SCF density matrix

  Nuclear Dipole Moment: [e a0]
     X:    -3.4045      Y:    -9.2257      Z:     3.7231

  Electronic Dipole Moment: [e a0]
     X:     3.6902      Y:     8.8957      Z:    -4.0761

  Dipole Moment: [e a0]
     X:     0.2858      Y:    -0.3300      Z:    -0.3530     Total:     0.5614

  Dipole Moment: [D]
     X:     0.7264      Y:    -0.8388      Z:    -0.8972     Total:     1.4270

*** tstop() called on ds3 at Tue Apr 28 20:35:06 2020
Module time:
	user time   =      93.10 seconds =       1.55 minutes
	system time =      36.88 seconds =       0.61 minutes
	total time  =        153 seconds =       2.55 minutes
Total time:
	user time   =      93.10 seconds =       1.55 minutes
	system time =      36.88 seconds =       0.61 minutes
	total time  =        153 seconds =       2.55 minutes
                                     G D M A

                                 by Anthony Stone

                           version 2.2.06, 22 June 2011

               Distributed Multipoles from Gaussian wavefunctions

Starting at 20:35:6 on 28 Apr 2020

Using SCF density matrix from file ./SSI/SSI-034ILE-037TYR-1-dimer.test.28994.fchk

                         Distributed Multipole Analysis

Standard DMA

Positions and radii in angstrom
Multipole moments in atomic units, ea_0^k for rank k

C          x = -0.494800  y = -2.105607  z =  1.993216 angstrom
           Maximum rank =  0   Radius =  0.650 angstrom
                   Q00  =  -0.234698

C          x = -0.258800  y = -2.321607  z =  3.502216 angstrom
           Maximum rank =  0   Radius =  0.650 angstrom
                   Q00  =  -0.238986

H          x = -1.178800  y = -2.860607  z =  1.603216 angstrom
           Maximum rank =  0   Radius =  0.325 angstrom
                   Q00  =   0.076200

H          x = -0.926800  y = -1.122607  z =  1.809216 angstrom
           Maximum rank =  0   Radius =  0.325 angstrom
                   Q00  =   0.091395

H          x =  0.442200  y = -2.143607  z =  1.439216 angstrom
           Maximum rank =  0   Radius =  0.325 angstrom
                   Q00  =   0.071721

H          x =  0.493200  y = -1.599607  z =  3.828216 angstrom
           Maximum rank =  0   Radius =  0.325 angstrom
                   Q00  =   0.071410

H          x =  0.119670  y = -3.333477  z =  3.709306 angstrom
           Maximum rank =  0   Radius =  0.325 angstrom
                   Q00  =   0.076152

H          x = -1.182961  y = -2.151947  z =  4.074176 angstrom
           Maximum rank =  0   Radius =  0.325 angstrom
                   Q00  =   0.082637

C          x = -1.139800  y =  0.159393  z = -3.374784 angstrom
           Maximum rank =  0   Radius =  0.650 angstrom
                   Q00  =  -0.190401

C          x =  0.674200  y =  0.832393  z =  0.467216 angstrom
           Maximum rank =  0   Radius =  0.650 angstrom
                   Q00  =   0.337770

C          x =  1.279200  y = -0.019607  z = -0.453784 angstrom
           Maximum rank =  0   Radius =  0.650 angstrom
                   Q00  =  -0.197539

C          x = -0.509800  y =  1.476393  z =  0.132216 angstrom
           Maximum rank =  0   Radius =  0.650 angstrom
                   Q00  =  -0.124208

C          x =  0.693200  y = -0.229607  z = -1.700784 angstrom
           Maximum rank =  0   Radius =  0.650 angstrom
                   Q00  =  -0.026808

C          x = -1.095800  y =  1.249393  z = -1.112784 angstrom
           Maximum rank =  0   Radius =  0.650 angstrom
                   Q00  =   0.040189

C          x = -0.505800  y =  0.392393  z = -2.035784 angstrom
           Maximum rank =  0   Radius =  0.650 angstrom
                   Q00  =  -0.138362

O          x =  1.248200  y =  1.045393  z =  1.688216 angstrom
           Maximum rank =  0   Radius =  0.650 angstrom
                   Q00  =  -0.677778

H          x =  2.208200  y = -0.515607  z = -0.206784 angstrom
           Maximum rank =  0   Radius =  0.325 angstrom
                   Q00  =   0.071071

H          x =  2.032200  y =  0.501393  z =  1.818216 angstrom
           Maximum rank =  0   Radius =  0.325 angstrom
                   Q00  =   0.407652

H          x = -0.973800  y =  2.140393  z =  0.846216 angstrom
           Maximum rank =  0   Radius =  0.325 angstrom
                   Q00  =   0.080275

H          x =  1.183200  y = -0.880607  z = -2.412784 angstrom
           Maximum rank =  0   Radius =  0.325 angstrom
                   Q00  =   0.068026

H          x = -2.014800  y =  1.759393  z = -1.362784 angstrom
           Maximum rank =  0   Radius =  0.325 angstrom
                   Q00  =   0.063429

H          x = -0.341800  y =  0.134393  z = -4.111784 angstrom
           Maximum rank =  0   Radius =  0.325 angstrom
                   Q00  =   0.094154

H          x = -1.783800  y =  1.002393  z = -3.625784 angstrom
           Maximum rank =  0   Radius =  0.325 angstrom
                   Q00  =   0.096320

H          x = -1.713846  y = -0.776307  z = -3.445104 angstrom
           Maximum rank =  0   Radius =  0.325 angstrom
                   Q00  =   0.100379

Total multipoles referred to origin at
           x =   0.000000,  y =    0.000000,  z =    0.000000 angstrom
                   Q00  =  -0.000000

Finished at 20:35:6 on 28 Apr 2020

  DMA results are available in the Python driver through the
	  variable('DMA DISTRIBUTED MULTIPOLES')
  and
	  variable('DMA TOTAL MULTIPOLES')
  commands.

    Psi4 stopped on: Tuesday, 28 April 2020 08:35PM
    Psi4 wall time for execution: 0:02:33.35

*** Psi4 exiting successfully. Buy a developer a beer!
