                               Psi4 1.3.2 release

  ==> Input File <==

--------------------------------------------------------------------------
import numpy as np
set {scf_type pk
basis cc-pvdz
d_convergence 10
gdma_switch   0
gdma_limit    0
gdma_origin   [ 0.0,  0.0,  0.0 ]
}
molecule test {
    units Angstrom
    0 1
    --
    0 1
    C                2.791594151593945     2.827708488353526     0.060201414683936
    C                1.504594151593945     2.965708488353526     0.835201414683936
    O                0.526594151593946     3.540708488353526     0.353201414683936
    N                1.489594151593945     2.426708488353526     2.044201414683936
    H                2.642594151593945     2.008708488353526    -0.642798585316064
    H                3.605594151593945     2.534708488353526     0.716201414683936
    H                0.641594151593945     2.499708488353526     2.600201414683936
    H                2.306594151593945     1.979708488353526     2.425201414683936
    H                3.061000151593945     3.740378488353526    -0.491576585316064
    C               -1.585405848406054    -0.785291511646474     2.418201414683936
    C               -0.729405848406054    -0.983291511646474    -0.056798585316064
    C               -1.343405848406054    -1.514291511646474     1.138201414683936
    C               -0.688405848406055    -2.036291511646474    -1.011798585316064
    C               -1.592405848406055    -2.827291511646474     0.887201414683936
    C               -0.245405848406055     0.279708488353526    -0.436798585316064
    C                0.280594151593945     0.451708488353526    -1.729798585316064
    C                0.327594151593945    -0.620291511646474    -2.642798585316064
    C               -0.144405848406055    -1.876291511646474    -2.288798585316064
    N               -1.215405848406054    -3.142291511646474    -0.395798585316064
    H               -0.324405848406055     1.105708488353526     0.251201414683936
    H                0.634594151593945     1.426708488353526    -2.038798585316064
    H                0.731594151593945    -0.460291511646474    -3.634798585316064
    H               -2.324405848406054    -1.323291511646474     3.015201414683936
    H               -2.010405848406055     0.187708488353526     2.164201414683936
    H               -2.039405848406055    -3.520291511646474     1.594201414683936
    H               -1.349405848406054    -4.056291511646474    -0.815798585316064
    H               -0.114405848406055    -2.701291511646474    -2.987798585316064
    H               -0.667376848406055    -0.638151511646474     3.006055414683936

}
e, wfn = energy('scf', return_wfn=True)
gdma(wfn)
dmavals = variable('DMA DISTRIBUTED MULTIPOLES')
charges = np.array(dmavals)
print(charges)
np.save('SSI-020GLN-036TRP-1-dimer.npy', np.array(charges))--------------------------------------------------------------------------

*** tstart() called on ds3
*** at Tue Apr 28 14:23:11 2020

   => Loading Basis Set <=

    Name: CC-PVDZ
    Role: ORBITAL
    Keyword: BASIS
    atoms 1-2, 10-18 entry C          line   138 file /theoryfs2/ds/metcalf/miniconda2/envs/tf2gpu/share/psi4/basis/cc-pvdz.gbs
    atoms 3          entry O          line   198 file /theoryfs2/ds/metcalf/miniconda2/envs/tf2gpu/share/psi4/basis/cc-pvdz.gbs
    atoms 4, 19      entry N          line   168 file /theoryfs2/ds/metcalf/miniconda2/envs/tf2gpu/share/psi4/basis/cc-pvdz.gbs
    atoms 5-9, 20-28 entry H          line    22 file /theoryfs2/ds/metcalf/miniconda2/envs/tf2gpu/share/psi4/basis/cc-pvdz.gbs

         ---------------------------------------------------------
                                   SCF
               by Justin Turney, Rob Parrish, Andy Simmonett
                          and Daniel G. A. Smith
                              RHF Reference
                        1 Threads,    500 MiB Core
         ---------------------------------------------------------

  ==> Geometry <==

    Molecular point group: c1
    Full point group: C1

    Geometry (in Angstrom), charge = 0, multiplicity = 1:

       Center              X                  Y                   Z               Mass
    ------------   -----------------  -----------------  -----------------  -----------------
         C            2.791594151594     2.827708488354     0.060201414684    12.000000000000
         C            1.504594151594     2.965708488354     0.835201414684    12.000000000000
         O            0.526594151594     3.540708488354     0.353201414684    15.994914619570
         N            1.489594151594     2.426708488354     2.044201414684    14.003074004430
         H            2.642594151594     2.008708488354    -0.642798585316     1.007825032230
         H            3.605594151594     2.534708488354     0.716201414684     1.007825032230
         H            0.641594151594     2.499708488354     2.600201414684     1.007825032230
         H            2.306594151594     1.979708488354     2.425201414684     1.007825032230
         H            3.061000151594     3.740378488354    -0.491576585316     1.007825032230
         C           -1.585405848406    -0.785291511646     2.418201414684    12.000000000000
         C           -0.729405848406    -0.983291511646    -0.056798585316    12.000000000000
         C           -1.343405848406    -1.514291511646     1.138201414684    12.000000000000
         C           -0.688405848406    -2.036291511646    -1.011798585316    12.000000000000
         C           -1.592405848406    -2.827291511646     0.887201414684    12.000000000000
         C           -0.245405848406     0.279708488354    -0.436798585316    12.000000000000
         C            0.280594151594     0.451708488354    -1.729798585316    12.000000000000
         C            0.327594151594    -0.620291511646    -2.642798585316    12.000000000000
         C           -0.144405848406    -1.876291511646    -2.288798585316    12.000000000000
         N           -1.215405848406    -3.142291511646    -0.395798585316    14.003074004430
         H           -0.324405848406     1.105708488354     0.251201414684     1.007825032230
         H            0.634594151594     1.426708488354    -2.038798585316     1.007825032230
         H            0.731594151594    -0.460291511646    -3.634798585316     1.007825032230
         H           -2.324405848406    -1.323291511646     3.015201414684     1.007825032230
         H           -2.010405848406     0.187708488354     2.164201414684     1.007825032230
         H           -2.039405848406    -3.520291511646     1.594201414684     1.007825032230
         H           -1.349405848406    -4.056291511646    -0.815798585316     1.007825032230
         H           -0.114405848406    -2.701291511646    -2.987798585316     1.007825032230
         H           -0.667376848406    -0.638151511646     3.006055414684     1.007825032230

  Running in c1 symmetry.

  Rotational constants: A =      0.03394  B =      0.01334  C =      0.01029 [cm^-1]
  Rotational constants: A =   1017.53548  B =    399.96329  C =    308.49482 [MHz]
  Nuclear repulsion =  834.116933772309267

  Charge       = 0
  Multiplicity = 1
  Electrons    = 102
  Nalpha       = 51
  Nbeta        = 51

  ==> Algorithm <==

  SCF Algorithm Type is PK.
  DIIS enabled.
  MOM disabled.
  Fractional occupation disabled.
  Guess Type is SAD.
  Energy threshold   = 1.00e-06
  Density threshold  = 1.00e-10
  Integral threshold = 0.00e+00

  ==> Primary Basis <==

  Basis Set: CC-PVDZ
    Blend: CC-PVDZ
    Number of shells: 126
    Number of basis function: 266
    Number of Cartesian functions: 280
    Spherical Harmonics?: true
    Max angular momentum: 2

  ==> Pre-Iterations <==

   -------------------------------------------------------
    Irrep   Nso     Nmo     Nalpha   Nbeta   Ndocc  Nsocc
   -------------------------------------------------------
     A        266     266       0       0       0       0
   -------------------------------------------------------
    Total     266     266      51      51      51       0
   -------------------------------------------------------

  ==> Integral Setup <==

  Using integral reordering PK algorithm.
  Sizing the integral batches needed.
  Building batch lookup table.
   Calculation information:
      Number of atoms:                  28
      Number of AO shells:             126
      Number of primitives:            378
      Number of atomic orbitals:       280
      Number of basis functions:       266

      Integral cutoff                 1.00e-12
      Number of threads:                 1

	Batch   1 pq = [       0,    9405] index = [             0,44231715] size =     44231715
	Batch   2 pq = [    9405,   13301] index = [      44231715,88464951] size =     44233236
	Batch   3 pq = [   13301,   16290] index = [      88464951,132690195] size =     44225244
	Batch   4 pq = [   16290,   18810] index = [     132690195,176917455] size =     44227260
	Batch   5 pq = [   18810,   21030] index = [     176917455,221140965] size =     44223510
	Batch   6 pq = [   21030,   23037] index = [     221140965,265363203] size =     44222238
	Batch   7 pq = [   23037,   24883] index = [     265363203,309594286] size =     44231083
	Batch   8 pq = [   24883,   26601] index = [     309594286,353819901] size =     44225615
	Batch   9 pq = [   26601,   28214] index = [     353819901,398029005] size =     44209104
	Batch  10 pq = [   28214,   29740] index = [     398029005,442248670] size =     44219665
	Batch  11 pq = [   29740,   31191] index = [     442248670,486454836] size =     44206166
	Batch  12 pq = [   31191,   32578] index = [     486454836,530679331] size =     44224495
	Batch  13 pq = [   32578,   33908] index = [     530679331,574893186] size =     44213855
	Batch  14 pq = [   33908,   35188] index = [     574893186,619115266] size =     44222080
	Batch  15 pq = [   35188,   35511] index = [     619115266,630533316] size =     11418050
  Task number: 58
  Buffer size: 11059200
  Buffer per thread: 2
  We computed 31243160 shell quartets total.
  Whereas there are 32012001 unique shell quartets.

  ==> DiskJK: Disk-Based J/K Matrices <==

    J tasked:                  Yes
    K tasked:                  Yes
    wK tasked:                  No
    Memory [MiB]:              375
    Schwarz Cutoff:          1E-12

    OpenMP threads:              1

  Minimum eigenvalue in the overlap matrix is 2.4494946304E-04.
  Using Symmetric Orthogonalization.

  SCF Guess: Superposition of Atomic Densities via on-the-fly atomic UHF.

  ==> Iterations <==

                        Total Energy        Delta E     RMS |[F,P]|

   @RHF iter SAD:  -607.57505644083346   -6.07575e+02   0.00000e+00
   @RHF iter   1:  -608.18234685966729   -6.07290e-01   2.83521e-03 DIIS
   @RHF iter   2:  -608.45570016927491   -2.73353e-01   1.50656e-03 DIIS
   @RHF iter   3:  -608.52230490477598   -6.66047e-02   3.61208e-04 DIIS
   @RHF iter   4:  -608.52775727577375   -5.45237e-03   1.37209e-04 DIIS
   @RHF iter   5:  -608.52857673933727   -8.19464e-04   2.22440e-05 DIIS
   @RHF iter   6:  -608.52862559973369   -4.88604e-05   1.10552e-05 DIIS
   @RHF iter   7:  -608.52863587351987   -1.02738e-05   4.52730e-06 DIIS
   @RHF iter   8:  -608.52863847710501   -2.60359e-06   1.65918e-06 DIIS
   @RHF iter   9:  -608.52863887383978   -3.96735e-07   7.87092e-07 DIIS
   @RHF iter  10:  -608.52863895787027   -8.40305e-08   3.52270e-07 DIIS
   @RHF iter  11:  -608.52863898199371   -2.41234e-08   1.44556e-07 DIIS
   @RHF iter  12:  -608.52863898574606   -3.75235e-09   7.45276e-08 DIIS
   @RHF iter  13:  -608.52863898645944   -7.13385e-10   2.38983e-08 DIIS
   @RHF iter  14:  -608.52863898655232   -9.28821e-11   8.74546e-09 DIIS
   @RHF iter  15:  -608.52863898656130   -8.98126e-12   3.06198e-09 DIIS
   @RHF iter  16:  -608.52863898656335   -2.04636e-12   1.26623e-09 DIIS
   @RHF iter  17:  -608.52863898656403   -6.82121e-13   5.92298e-10 DIIS
   @RHF iter  18:  -608.52863898657006   -6.02540e-12   2.31839e-10 DIIS
   @RHF iter  19:  -608.52863898656017    9.89075e-12   1.17060e-10 DIIS
   @RHF iter  20:  -608.52863898656472   -4.54747e-12   5.11612e-11 DIIS
  Energy and wave function converged.

  ==> Post-Iterations <==

    Orbital Energies [Eh]
    ---------------------

    Doubly Occupied:

       1A    -20.501846     2A    -15.598806     3A    -15.590734
       4A    -11.346972     5A    -11.262391     6A    -11.262165
       7A    -11.237530     8A    -11.228358     9A    -11.227883
      10A    -11.227142    11A    -11.225537    12A    -11.217945
      13A    -11.217763    14A    -11.216222    15A     -1.364889
      16A     -1.292089    17A     -1.217829    18A     -1.120192
      19A     -1.070726    20A     -0.999120    21A     -0.990134
      22A     -0.983988    23A     -0.929946    24A     -0.835480
      25A     -0.800686    26A     -0.798198    27A     -0.748319
      28A     -0.727350    29A     -0.715372    30A     -0.660602
      31A     -0.653710    32A     -0.637602    33A     -0.612923
      34A     -0.598084    35A     -0.590496    36A     -0.579668
      37A     -0.567752    38A     -0.565951    39A     -0.556416
      40A     -0.553006    41A     -0.535864    42A     -0.525004
      43A     -0.518564    44A     -0.489354    45A     -0.466107
      46A     -0.455305    47A     -0.408609    48A     -0.403728
      49A     -0.368275    50A     -0.290132    51A     -0.272743

    Virtual:

      52A      0.128192    53A      0.157905    54A      0.167730
      55A      0.182531    56A      0.188287    57A      0.199835
      58A      0.211557    59A      0.214007    60A      0.227691
      61A      0.232067    62A      0.249061    63A      0.261789
      64A      0.268759    65A      0.280448    66A      0.285513
      67A      0.287613    68A      0.315391    69A      0.330865
      70A      0.372869    71A      0.381446    72A      0.393047
      73A      0.408192    74A      0.417158    75A      0.443510
      76A      0.472187    77A      0.481316    78A      0.486460
      79A      0.509449    80A      0.522383    81A      0.577290
      82A      0.600192    83A      0.610142    84A      0.631058
      85A      0.635871    86A      0.646569    87A      0.655664
      88A      0.678560    89A      0.697468    90A      0.699361
      91A      0.701639    92A      0.718765    93A      0.723540
      94A      0.730485    95A      0.731789    96A      0.742981
      97A      0.747181    98A      0.752813    99A      0.762128
     100A      0.763611   101A      0.777209   102A      0.788839
     103A      0.791609   104A      0.800142   105A      0.815490
     106A      0.846088   107A      0.853931   108A      0.865637
     109A      0.878383   110A      0.879894   111A      0.885146
     112A      0.892261   113A      0.903847   114A      0.911660
     115A      0.921791   116A      0.927456   117A      0.936000
     118A      0.952660   119A      0.956662   120A      0.965975
     121A      0.970670   122A      0.989832   123A      1.009947
     124A      1.013992   125A      1.024759   126A      1.050696
     127A      1.063207   128A      1.076494   129A      1.083974
     130A      1.098492   131A      1.118359   132A      1.123167
     133A      1.132960   134A      1.147849   135A      1.155884
     136A      1.178997   137A      1.210488   138A      1.216558
     139A      1.227411   140A      1.229497   141A      1.246768
     142A      1.255554   143A      1.278325   144A      1.296005
     145A      1.306767   146A      1.323311   147A      1.330878
     148A      1.334798   149A      1.363485   150A      1.364203
     151A      1.365799   152A      1.391057   153A      1.410801
     154A      1.436858   155A      1.448543   156A      1.471130
     157A      1.481887   158A      1.497525   159A      1.538163
     160A      1.568739   161A      1.598613   162A      1.599324
     163A      1.634471   164A      1.646699   165A      1.653536
     166A      1.660195   167A      1.671231   168A      1.687138
     169A      1.700729   170A      1.737731   171A      1.758306
     172A      1.762896   173A      1.782035   174A      1.787054
     175A      1.807212   176A      1.823798   177A      1.831892
     178A      1.835464   179A      1.872332   180A      1.883488
     181A      1.888997   182A      1.892178   183A      1.905037
     184A      1.909182   185A      1.914834   186A      1.933084
     187A      1.935828   188A      1.938949   189A      1.946534
     190A      1.951953   191A      1.959380   192A      1.976156
     193A      1.988032   194A      2.010250   195A      2.014113
     196A      2.025491   197A      2.048284   198A      2.050072
     199A      2.069146   200A      2.073761   201A      2.088059
     202A      2.092356   203A      2.105360   204A      2.114823
     205A      2.125759   206A      2.143614   207A      2.161109
     208A      2.166484   209A      2.174468   210A      2.192870
     211A      2.236958   212A      2.247868   213A      2.251736
     214A      2.286903   215A      2.300722   216A      2.312687
     217A      2.327309   218A      2.336873   219A      2.353497
     220A      2.397183   221A      2.418098   222A      2.438388
     223A      2.449900   224A      2.461377   225A      2.469656
     226A      2.509239   227A      2.536673   228A      2.558342
     229A      2.570538   230A      2.581664   231A      2.606001
     232A      2.639183   233A      2.642700   234A      2.664729
     235A      2.683764   236A      2.703126   237A      2.734074
     238A      2.770511   239A      2.774394   240A      2.786013
     241A      2.789202   242A      2.803160   243A      2.824770
     244A      2.831747   245A      2.863205   246A      2.876231
     247A      2.877342   248A      2.904654   249A      2.968313
     250A      2.993114   251A      3.031229   252A      3.049909
     253A      3.066552   254A      3.103384   255A      3.122293
     256A      3.139231   257A      3.199080   258A      3.279692
     259A      3.296605   260A      3.381616   261A      3.506940
     262A      3.539779   263A      3.737604   264A      3.870934
     265A      3.910519   266A      3.930408

    Final Occupation by Irrep:
              A
    DOCC [    51 ]

  @RHF Final Energy:  -608.52863898656472

   => Energetics <=

    Nuclear Repulsion Energy =            834.1169337723092667
    One-Electron Energy =               -2482.7601326107542263
    Two-Electron Energy =                1040.1145598518801307
    Total Energy =                       -608.5286389865648289

Computation Completed

Properties will be evaluated at   0.000000,   0.000000,   0.000000 [a0]

Properties computed using the SCF density matrix

  Nuclear Dipole Moment: [e a0]
     X:     4.4957      Y:     2.6288      Z:     4.8351

  Electronic Dipole Moment: [e a0]
     X:    -3.6085      Y:    -4.1186      Z:    -3.8388

  Dipole Moment: [e a0]
     X:     0.8873      Y:    -1.4898      Z:     0.9963     Total:     1.9999

  Dipole Moment: [D]
     X:     2.2552      Y:    -3.7868      Z:     2.5323     Total:     5.0831

*** tstop() called on ds3 at Tue Apr 28 14:29:52 2020
Module time:
	user time   =     272.51 seconds =       4.54 minutes
	system time =     110.88 seconds =       1.85 minutes
	total time  =        401 seconds =       6.68 minutes
Total time:
	user time   =     272.51 seconds =       4.54 minutes
	system time =     110.88 seconds =       1.85 minutes
	total time  =        401 seconds =       6.68 minutes
                                     G D M A

                                 by Anthony Stone

                           version 2.2.06, 22 June 2011

               Distributed Multipoles from Gaussian wavefunctions

Starting at 14:29:53 on 28 Apr 2020

Using SCF density matrix from file ./SSI/SSI-020GLN-036TRP-1-dimer.test.20014.fchk

                         Distributed Multipole Analysis

Standard DMA

Positions and radii in angstrom
Multipole moments in atomic units, ea_0^k for rank k

C          x =  2.791594  y =  2.827708  z =  0.060201 angstrom
           Maximum rank =  0   Radius =  0.650 angstrom
                   Q00  =  -0.255669

C          x =  1.504594  y =  2.965708  z =  0.835201 angstrom
           Maximum rank =  0   Radius =  0.650 angstrom
                   Q00  =   0.806196

O          x =  0.526594  y =  3.540708  z =  0.353201 angstrom
           Maximum rank =  0   Radius =  0.650 angstrom
                   Q00  =  -0.789528

N          x =  1.489594  y =  2.426708  z =  2.044201 angstrom
           Maximum rank =  0   Radius =  0.650 angstrom
                   Q00  =  -0.526147

H          x =  2.642594  y =  2.008708  z = -0.642799 angstrom
           Maximum rank =  0   Radius =  0.325 angstrom
                   Q00  =   0.133815

H          x =  3.605594  y =  2.534708  z =  0.716201 angstrom
           Maximum rank =  0   Radius =  0.325 angstrom
                   Q00  =   0.074428

H          x =  0.641594  y =  2.499708  z =  2.600201 angstrom
           Maximum rank =  0   Radius =  0.325 angstrom
                   Q00  =   0.222740

H          x =  2.306594  y =  1.979708  z =  2.425201 angstrom
           Maximum rank =  0   Radius =  0.325 angstrom
                   Q00  =   0.208974

H          x =  3.061000  y =  3.740378  z = -0.491577 angstrom
           Maximum rank =  0   Radius =  0.325 angstrom
                   Q00  =   0.131471

C          x = -1.585406  y = -0.785292  z =  2.418201 angstrom
           Maximum rank =  0   Radius =  0.650 angstrom
                   Q00  =  -0.203413

C          x = -0.729406  y = -0.983292  z = -0.056799 angstrom
           Maximum rank =  0   Radius =  0.650 angstrom
                   Q00  =  -0.071652

C          x = -1.343406  y = -1.514292  z =  1.138201 angstrom
           Maximum rank =  0   Radius =  0.650 angstrom
                   Q00  =  -0.118541

C          x = -0.688406  y = -2.036292  z = -1.011799 angstrom
           Maximum rank =  0   Radius =  0.650 angstrom
                   Q00  =   0.299102

C          x = -1.592406  y = -2.827292  z =  0.887201 angstrom
           Maximum rank =  0   Radius =  0.650 angstrom
                   Q00  =   0.073659

C          x = -0.245406  y =  0.279708  z = -0.436799 angstrom
           Maximum rank =  0   Radius =  0.650 angstrom
                   Q00  =  -0.094014

C          x =  0.280594  y =  0.451708  z = -1.729799 angstrom
           Maximum rank =  0   Radius =  0.650 angstrom
                   Q00  =  -0.093329

C          x =  0.327594  y = -0.620292  z = -2.642799 angstrom
           Maximum rank =  0   Radius =  0.650 angstrom
                   Q00  =  -0.069208

C          x = -0.144406  y = -1.876292  z = -2.288799 angstrom
           Maximum rank =  0   Radius =  0.650 angstrom
                   Q00  =  -0.122517

N          x = -1.215406  y = -3.142292  z = -0.395799 angstrom
           Maximum rank =  0   Radius =  0.650 angstrom
                   Q00  =  -0.496289

H          x = -0.324406  y =  1.105708  z =  0.251201 angstrom
           Maximum rank =  0   Radius =  0.325 angstrom
                   Q00  =   0.080330

H          x =  0.634594  y =  1.426708  z = -2.038799 angstrom
           Maximum rank =  0   Radius =  0.325 angstrom
                   Q00  =   0.064746

H          x =  0.731594  y = -0.460292  z = -3.634799 angstrom
           Maximum rank =  0   Radius =  0.325 angstrom
                   Q00  =   0.064761

H          x = -2.324406  y = -1.323292  z =  3.015201 angstrom
           Maximum rank =  0   Radius =  0.325 angstrom
                   Q00  =   0.105170

H          x = -2.010406  y =  0.187708  z =  2.164201 angstrom
           Maximum rank =  0   Radius =  0.325 angstrom
                   Q00  =   0.103092

H          x = -2.039406  y = -3.520292  z =  1.594201 angstrom
           Maximum rank =  0   Radius =  0.325 angstrom
                   Q00  =   0.099524

H          x = -1.349406  y = -4.056292  z = -0.815799 angstrom
           Maximum rank =  0   Radius =  0.325 angstrom
                   Q00  =   0.214142

H          x = -0.114406  y = -2.701292  z = -2.987799 angstrom
           Maximum rank =  0   Radius =  0.325 angstrom
                   Q00  =   0.070994

H          x = -0.667377  y = -0.638152  z =  3.006055 angstrom
           Maximum rank =  0   Radius =  0.325 angstrom
                   Q00  =   0.087162

Total multipoles referred to origin at
           x =   0.000000,  y =    0.000000,  z =    0.000000 angstrom
                   Q00  =  -0.000000

Finished at 14:29:53 on 28 Apr 2020

  DMA results are available in the Python driver through the
	  variable('DMA DISTRIBUTED MULTIPOLES')
  and
	  variable('DMA TOTAL MULTIPOLES')
  commands.

    Psi4 stopped on: Tuesday, 28 April 2020 02:29PM
    Psi4 wall time for execution: 0:06:41.93

*** Psi4 exiting successfully. Buy a developer a beer!
