                               Psi4 1.3.2 release

  ==> Input File <==

--------------------------------------------------------------------------
import numpy as np
set {scf_type pk
basis cc-pvdz
d_convergence 10
gdma_switch   0
gdma_limit    0
gdma_origin   [ 0.0,  0.0,  0.0 ]
}
molecule test {
    units Angstrom
    0 1
    --
    0 1
    C                1.371103132498632    -1.135034589618111    -0.305813181022732
    C                1.431103132498633    -2.654034589618111    -0.468813181022732
    H                0.334103132498633    -0.841034589618111    -0.144813181022732
    H                1.725103132498633    -0.644034589618111    -1.206813181022732
    H                1.973103132498633    -0.825034589618111     0.547186818977268
    H                0.819103132498633    -2.926034589618111    -1.331813181022732
    H                1.014203132498632    -3.141423589618111     0.424856818977268
    H                2.470283132498632    -2.971023589618111    -0.640933181022732
    C               -1.271896867501367     1.331965410381889     0.881186818977268
    C               -1.526896867501367     2.459965410381888    -0.102813181022732
    H               -0.212896867501367     1.078965410381889     0.898186818977268
    H               -1.831896867501367     0.446965410381889     0.575186818977268
    H               -1.597896867501367     1.625965410381889     1.879186818977268
    H               -1.204896867501367     2.113965410381889    -1.074813181022732
    H               -0.933036867501367     3.336855410381888     0.194476818977268
    H               -2.595906867501368     2.711795410381889    -0.164513181022732

}
e, wfn = energy('scf', return_wfn=True)
gdma(wfn)
dmavals = variable('DMA DISTRIBUTED MULTIPOLES')
charges = np.array(dmavals)
print(charges)
np.save('SSI-007ALA-049VAL-1-dimer.npy', np.array(charges))--------------------------------------------------------------------------

*** tstart() called on ds3
*** at Sun Apr 26 20:41:38 2020

   => Loading Basis Set <=

    Name: CC-PVDZ
    Role: ORBITAL
    Keyword: BASIS
    atoms 1-2, 9-10  entry C          line   138 file /theoryfs2/ds/metcalf/miniconda2/envs/tf2gpu/share/psi4/basis/cc-pvdz.gbs
    atoms 3-8, 11-16 entry H          line    22 file /theoryfs2/ds/metcalf/miniconda2/envs/tf2gpu/share/psi4/basis/cc-pvdz.gbs

         ---------------------------------------------------------
                                   SCF
               by Justin Turney, Rob Parrish, Andy Simmonett
                          and Daniel G. A. Smith
                              RHF Reference
                        1 Threads,    500 MiB Core
         ---------------------------------------------------------

  ==> Geometry <==

    Molecular point group: c1
    Full point group: C1

    Geometry (in Angstrom), charge = 0, multiplicity = 1:

       Center              X                  Y                   Z               Mass
    ------------   -----------------  -----------------  -----------------  -----------------
         C            1.371103132499    -1.135034589618    -0.305813181023    12.000000000000
         C            1.431103132499    -2.654034589618    -0.468813181023    12.000000000000
         H            0.334103132499    -0.841034589618    -0.144813181023     1.007825032230
         H            1.725103132499    -0.644034589618    -1.206813181023     1.007825032230
         H            1.973103132499    -0.825034589618     0.547186818977     1.007825032230
         H            0.819103132499    -2.926034589618    -1.331813181023     1.007825032230
         H            1.014203132499    -3.141423589618     0.424856818977     1.007825032230
         H            2.470283132499    -2.971023589618    -0.640933181023     1.007825032230
         C           -1.271896867501     1.331965410382     0.881186818977    12.000000000000
         C           -1.526896867501     2.459965410382    -0.102813181023    12.000000000000
         H           -0.212896867501     1.078965410382     0.898186818977     1.007825032230
         H           -1.831896867501     0.446965410382     0.575186818977     1.007825032230
         H           -1.597896867501     1.625965410382     1.879186818977     1.007825032230
         H           -1.204896867501     2.113965410382    -1.074813181023     1.007825032230
         H           -0.933036867501     3.336855410382     0.194476818977     1.007825032230
         H           -2.595906867501     2.711795410382    -0.164513181023     1.007825032230

  Running in c1 symmetry.

  Rotational constants: A =      0.56040  B =      0.04451  C =      0.04349 [cm^-1]
  Rotational constants: A =  16800.36115  B =   1334.46726  C =   1303.66450 [MHz]
  Nuclear repulsion =  121.229895081679572

  Charge       = 0
  Multiplicity = 1
  Electrons    = 36
  Nalpha       = 18
  Nbeta        = 18

  ==> Algorithm <==

  SCF Algorithm Type is PK.
  DIIS enabled.
  MOM disabled.
  Fractional occupation disabled.
  Guess Type is SAD.
  Energy threshold   = 1.00e-06
  Density threshold  = 1.00e-10
  Integral threshold = 0.00e+00

  ==> Primary Basis <==

  Basis Set: CC-PVDZ
    Blend: CC-PVDZ
    Number of shells: 60
    Number of basis function: 116
    Number of Cartesian functions: 120
    Spherical Harmonics?: true
    Max angular momentum: 2

  ==> Pre-Iterations <==

   -------------------------------------------------------
    Irrep   Nso     Nmo     Nalpha   Nbeta   Ndocc  Nsocc
   -------------------------------------------------------
     A        116     116       0       0       0       0
   -------------------------------------------------------
    Total     116     116      18      18      18       0
   -------------------------------------------------------

  ==> Integral Setup <==

  Using integral reordering PK algorithm.
  Sizing the integral batches needed.
  Building batch lookup table.
   Calculation information:
      Number of atoms:                  16
      Number of AO shells:              60
      Number of primitives:            148
      Number of atomic orbitals:       120
      Number of basis functions:       116

      Integral cutoff                 1.00e-12
      Number of threads:                 1

	Batch   1 pq = [       0,    6786] index = [             0,23028291] size =     23028291
  Task number: 3
  Buffer size: 11059200
  Buffer per thread: 2
  We computed 1386403 shell quartets total.
  Whereas there are 1675365 unique shell quartets.

  ==> DiskJK: Disk-Based J/K Matrices <==

    J tasked:                  Yes
    K tasked:                  Yes
    wK tasked:                  No
    Memory [MiB]:              375
    Schwarz Cutoff:          1E-12

    OpenMP threads:              1

  Minimum eigenvalue in the overlap matrix is 7.0017383840E-03.
  Using Symmetric Orthogonalization.

  SCF Guess: Superposition of Atomic Densities via on-the-fly atomic UHF.

  ==> Iterations <==

                        Total Energy        Delta E     RMS |[F,P]|

   @RHF iter SAD:  -157.37970260226945   -1.57380e+02   0.00000e+00
   @RHF iter   1:  -158.30561622337166   -9.25914e-01   4.23127e-03 DIIS
   @RHF iter   2:  -158.43987561132161   -1.34259e-01   1.79939e-03 DIIS
   @RHF iter   3:  -158.46337305818616   -2.34974e-02   3.50813e-04 DIIS
   @RHF iter   4:  -158.46521966272576   -1.84660e-03   3.91888e-05 DIIS
   @RHF iter   5:  -158.46524417651810   -2.45138e-05   6.61391e-06 DIIS
   @RHF iter   6:  -158.46524483294866   -6.56431e-07   1.11356e-06 DIIS
   @RHF iter   7:  -158.46524484536138   -1.24127e-08   3.21835e-07 DIIS
   @RHF iter   8:  -158.46524484629168   -9.30299e-10   4.33603e-08 DIIS
   @RHF iter   9:  -158.46524484632261   -3.09228e-11   9.30152e-09 DIIS
   @RHF iter  10:  -158.46524484632295   -3.41061e-13   2.45391e-09 DIIS
   @RHF iter  11:  -158.46524484632357   -6.25278e-13   7.34425e-10 DIIS
   @RHF iter  12:  -158.46524484632343    1.42109e-13   1.77318e-10 DIIS
   @RHF iter  13:  -158.46524484632306    3.69482e-13   2.57623e-11 DIIS
  Energy and wave function converged.

  ==> Post-Iterations <==

    Orbital Energies [Eh]
    ---------------------

    Doubly Occupied:

       1A    -11.219371     2A    -11.217222     3A    -11.215358
       4A    -11.214913     5A     -1.021819     6A     -1.018275
       7A     -0.838278     8A     -0.832741     9A     -0.605070
      10A     -0.600095    11A     -0.598788    12A     -0.595034
      13A     -0.505303    14A     -0.496597    15A     -0.489198
      16A     -0.486897    17A     -0.484263    18A     -0.477622

    Virtual:

      19A      0.174974    20A      0.195690    21A      0.227263
      22A      0.236369    23A      0.240997    24A      0.259140
      25A      0.263376    26A      0.273722    27A      0.281267
      28A      0.288281    29A      0.303360    30A      0.333840
      31A      0.390182    32A      0.414592    33A      0.587713
      34A      0.596028    35A      0.601738    36A      0.605481
      37A      0.609625    38A      0.630869    39A      0.666160
      40A      0.680528    41A      0.694503    42A      0.790955
      43A      0.847696    44A      0.860814    45A      0.884290
      46A      0.892011    47A      0.892756    48A      0.894347
      49A      0.898515    50A      0.902778    51A      0.908223
      52A      0.919914    53A      0.929257    54A      0.953548
      55A      0.980528    56A      1.008149    57A      1.123006
      58A      1.129224    59A      1.138231    60A      1.168558
      61A      1.236295    62A      1.271376    63A      1.469312
      64A      1.474814    65A      1.479892    66A      1.496102
      67A      1.550057    68A      1.603267    69A      1.675363
      70A      1.679083    71A      1.689270    72A      1.699713
      73A      1.850222    74A      1.856397    75A      1.862745
      76A      1.881045    77A      1.903860    78A      1.923405
      79A      1.933009    80A      1.942293    81A      1.946230
      82A      1.950908    83A      1.955005    84A      1.961341
      85A      1.965033    86A      1.979634    87A      1.995189
      88A      2.010582    89A      2.093456    90A      2.104228
      91A      2.113380    92A      2.134210    93A      2.290888
      94A      2.294827    95A      2.312114    96A      2.317482
      97A      2.451249    98A      2.455624    99A      2.470718
     100A      2.487305   101A      2.558670   102A      2.567186
     103A      2.577014   104A      2.588991   105A      2.760507
     106A      2.766572   107A      2.790052   108A      2.798549
     109A      2.843835   110A      2.846131   111A      2.851840
     112A      2.862074   113A      2.939971   114A      2.950711
     115A      2.967368   116A      2.999984

    Final Occupation by Irrep:
              A
    DOCC [    18 ]

  @RHF Final Energy:  -158.46524484632306

   => Energetics <=

    Nuclear Repulsion Energy =            121.2298950816795724
    One-Electron Energy =                -451.5565907580933072
    Two-Electron Energy =                 171.8614508300906891
    Total Energy =                       -158.4652448463230598

Computation Completed

Properties will be evaluated at   0.000000,   0.000000,   0.000000 [a0]

Properties computed using the SCF density matrix

  Nuclear Dipole Moment: [e a0]
     X:    -0.0381      Y:    -0.0319      Z:    -0.0418

  Electronic Dipole Moment: [e a0]
     X:     0.0340      Y:     0.0331      Z:     0.0348

  Dipole Moment: [e a0]
     X:    -0.0041      Y:     0.0011      Z:    -0.0070     Total:     0.0082

  Dipole Moment: [D]
     X:    -0.0103      Y:     0.0029      Z:    -0.0178     Total:     0.0208

*** tstop() called on ds3 at Sun Apr 26 20:41:51 2020
Module time:
	user time   =       9.15 seconds =       0.15 minutes
	system time =       3.87 seconds =       0.06 minutes
	total time  =         13 seconds =       0.22 minutes
Total time:
	user time   =       9.15 seconds =       0.15 minutes
	system time =       3.87 seconds =       0.06 minutes
	total time  =         13 seconds =       0.22 minutes
                                     G D M A

                                 by Anthony Stone

                           version 2.2.06, 22 June 2011

               Distributed Multipoles from Gaussian wavefunctions

Starting at 20:41:51 on 26 Apr 2020

Using SCF density matrix from file ./SSI/SSI-007ALA-049VAL-1-dimer.test.9841.fchk

                         Distributed Multipole Analysis

Standard DMA

Positions and radii in angstrom
Multipole moments in atomic units, ea_0^k for rank k

C          x =  1.371103  y = -1.135035  z = -0.305813 angstrom
           Maximum rank =  0   Radius =  0.650 angstrom
                   Q00  =  -0.236341

C          x =  1.431103  y = -2.654035  z = -0.468813 angstrom
           Maximum rank =  0   Radius =  0.650 angstrom
                   Q00  =  -0.239244

H          x =  0.334103  y = -0.841035  z = -0.144813 angstrom
           Maximum rank =  0   Radius =  0.325 angstrom
                   Q00  =   0.081727

H          x =  1.725103  y = -0.644035  z = -1.206813 angstrom
           Maximum rank =  0   Radius =  0.325 angstrom
                   Q00  =   0.079783

H          x =  1.973103  y = -0.825035  z =  0.547187 angstrom
           Maximum rank =  0   Radius =  0.325 angstrom
                   Q00  =   0.078030

H          x =  0.819103  y = -2.926035  z = -1.331813 angstrom
           Maximum rank =  0   Radius =  0.325 angstrom
                   Q00  =   0.077686

H          x =  1.014203  y = -3.141424  z =  0.424857 angstrom
           Maximum rank =  0   Radius =  0.325 angstrom
                   Q00  =   0.079131

H          x =  2.470283  y = -2.971024  z = -0.640933 angstrom
           Maximum rank =  0   Radius =  0.325 angstrom
                   Q00  =   0.078967

C          x = -1.271897  y =  1.331965  z =  0.881187 angstrom
           Maximum rank =  0   Radius =  0.650 angstrom
                   Q00  =  -0.235812

C          x = -1.526897  y =  2.459965  z = -0.102813 angstrom
           Maximum rank =  0   Radius =  0.650 angstrom
                   Q00  =  -0.230909

H          x = -0.212897  y =  1.078965  z =  0.898187 angstrom
           Maximum rank =  0   Radius =  0.325 angstrom
                   Q00  =   0.083794

H          x = -1.831897  y =  0.446965  z =  0.575187 angstrom
           Maximum rank =  0   Radius =  0.325 angstrom
                   Q00  =   0.073989

H          x = -1.597897  y =  1.625965  z =  1.879187 angstrom
           Maximum rank =  0   Radius =  0.325 angstrom
                   Q00  =   0.076749

H          x = -1.204897  y =  2.113965  z = -1.074813 angstrom
           Maximum rank =  0   Radius =  0.325 angstrom
                   Q00  =   0.076593

H          x = -0.933037  y =  3.336855  z =  0.194477 angstrom
           Maximum rank =  0   Radius =  0.325 angstrom
                   Q00  =   0.076941

H          x = -2.595907  y =  2.711795  z = -0.164513 angstrom
           Maximum rank =  0   Radius =  0.325 angstrom
                   Q00  =   0.078916

Total multipoles referred to origin at
           x =   0.000000,  y =    0.000000,  z =    0.000000 angstrom
                   Q00  =   0.000000

Finished at 20:41:51 on 26 Apr 2020

  DMA results are available in the Python driver through the
	  variable('DMA DISTRIBUTED MULTIPOLES')
  and
	  variable('DMA TOTAL MULTIPOLES')
  commands.

    Psi4 stopped on: Sunday, 26 April 2020 08:41PM
    Psi4 wall time for execution: 0:00:13.03

*** Psi4 exiting successfully. Buy a developer a beer!
