                               Psi4 1.3.2 release

  ==> Input File <==

--------------------------------------------------------------------------
import numpy as np
set {scf_type pk
basis cc-pvdz
d_convergence 10
gdma_switch   0
gdma_limit    0
gdma_origin   [ 0.0,  0.0,  0.0 ]
}
molecule test {
    units Angstrom
    0 1
    --
    0 1
    C                0.960562306610139    -0.712304258966833     0.349502385049453
    C                1.380562306610139    -2.171304258966833     0.227502385049452
    C                0.730562306610139    -0.230304258966833     1.780502385049453
    H                1.702562306610139    -0.067304258966833    -0.129497614950548
    H                0.057562306610139    -0.655304258966833    -0.207497614950547
    H                0.646562306610139    -2.804304258966833     0.737502385049453
    H                1.585562306610139    -0.461304258966833     2.416502385049453
    H                0.646562306610139     0.854695741033167     1.733502385049453
    H                2.367016306610140    -2.321624258966833     0.690442385049453
    H                1.392825306610139    -2.471384258966833    -0.830707614950548
    H               -0.185909493389861    -0.662264258966833     2.208862385049453
    C               -1.674437693389861     0.962695741033167    -0.686497614950548
    C               -1.322437693389861     2.094695741033167    -1.642497614950547
    H               -1.543437693389860    -0.004304258966833    -1.167497614950547
    H               -1.121437693389861     1.092695741033167     0.237502385049453
    H               -2.730437693389860     1.046695741033167    -0.421497614950547
    H               -1.858437693389861     2.992695741033167    -1.335497614950548
    H               -1.606958693389861     1.833108741033167    -2.672357614950548
    H               -0.242802293389861     2.300891741033167    -1.599247614950547

}
e, wfn = energy('scf', return_wfn=True)
gdma(wfn)
dmavals = variable('DMA DISTRIBUTED MULTIPOLES')
charges = np.array(dmavals)
print(charges)
np.save('SSI-001LYS-027THR-2-dimer.npy', np.array(charges))--------------------------------------------------------------------------

*** tstart() called on ds3
*** at Mon Apr 27 18:37:43 2020

   => Loading Basis Set <=

    Name: CC-PVDZ
    Role: ORBITAL
    Keyword: BASIS
    atoms 1-3, 12-13  entry C          line   138 file /theoryfs2/ds/metcalf/miniconda2/envs/tf2gpu/share/psi4/basis/cc-pvdz.gbs
    atoms 4-11, 14-19 entry H          line    22 file /theoryfs2/ds/metcalf/miniconda2/envs/tf2gpu/share/psi4/basis/cc-pvdz.gbs

         ---------------------------------------------------------
                                   SCF
               by Justin Turney, Rob Parrish, Andy Simmonett
                          and Daniel G. A. Smith
                              RHF Reference
                        1 Threads,    500 MiB Core
         ---------------------------------------------------------

  ==> Geometry <==

    Molecular point group: c1
    Full point group: C1

    Geometry (in Angstrom), charge = 0, multiplicity = 1:

       Center              X                  Y                   Z               Mass
    ------------   -----------------  -----------------  -----------------  -----------------
         C            0.960562306610    -0.712304258967     0.349502385049    12.000000000000
         C            1.380562306610    -2.171304258967     0.227502385049    12.000000000000
         C            0.730562306610    -0.230304258967     1.780502385049    12.000000000000
         H            1.702562306610    -0.067304258967    -0.129497614951     1.007825032230
         H            0.057562306610    -0.655304258967    -0.207497614951     1.007825032230
         H            0.646562306610    -2.804304258967     0.737502385049     1.007825032230
         H            1.585562306610    -0.461304258967     2.416502385049     1.007825032230
         H            0.646562306610     0.854695741033     1.733502385049     1.007825032230
         H            2.367016306610    -2.321624258967     0.690442385049     1.007825032230
         H            1.392825306610    -2.471384258967    -0.830707614951     1.007825032230
         H           -0.185909493390    -0.662264258967     2.208862385049     1.007825032230
         C           -1.674437693390     0.962695741033    -0.686497614951    12.000000000000
         C           -1.322437693390     2.094695741033    -1.642497614951    12.000000000000
         H           -1.543437693390    -0.004304258967    -1.167497614951     1.007825032230
         H           -1.121437693390     1.092695741033     0.237502385049     1.007825032230
         H           -2.730437693390     1.046695741033    -0.421497614951     1.007825032230
         H           -1.858437693390     2.992695741033    -1.335497614951     1.007825032230
         H           -1.606958693390     1.833108741033    -2.672357614951     1.007825032230
         H           -0.242802293390     2.300891741033    -1.599247614951     1.007825032230

  Running in c1 symmetry.

  Rotational constants: A =      0.22797  B =      0.04846  C =      0.04419 [cm^-1]
  Rotational constants: A =   6834.30954  B =   1452.71709  C =   1324.68639 [MHz]
  Nuclear repulsion =  184.257950263805469

  Charge       = 0
  Multiplicity = 1
  Electrons    = 44
  Nalpha       = 22
  Nbeta        = 22

  ==> Algorithm <==

  SCF Algorithm Type is PK.
  DIIS enabled.
  MOM disabled.
  Fractional occupation disabled.
  Guess Type is SAD.
  Energy threshold   = 1.00e-06
  Density threshold  = 1.00e-10
  Integral threshold = 0.00e+00

  ==> Primary Basis <==

  Basis Set: CC-PVDZ
    Blend: CC-PVDZ
    Number of shells: 72
    Number of basis function: 140
    Number of Cartesian functions: 145
    Spherical Harmonics?: true
    Max angular momentum: 2

  ==> Pre-Iterations <==

   -------------------------------------------------------
    Irrep   Nso     Nmo     Nalpha   Nbeta   Ndocc  Nsocc
   -------------------------------------------------------
     A        140     140       0       0       0       0
   -------------------------------------------------------
    Total     140     140      22      22      22       0
   -------------------------------------------------------

  ==> Integral Setup <==

  Using integral reordering PK algorithm.
  Sizing the integral batches needed.
  Building batch lookup table.
   Calculation information:
      Number of atoms:                  19
      Number of AO shells:              72
      Number of primitives:            180
      Number of atomic orbitals:       145
      Number of basis functions:       140

      Integral cutoff                 1.00e-12
      Number of threads:                 1

	Batch   1 pq = [       0,    9405] index = [             0,44231715] size =     44231715
	Batch   2 pq = [    9405,    9870] index = [      44231715,48713385] size =      4481670
  Task number: 5
  Buffer size: 11059200
  Buffer per thread: 2
  We computed 3086605 shell quartets total.
  Whereas there are 3454506 unique shell quartets.

  ==> DiskJK: Disk-Based J/K Matrices <==

    J tasked:                  Yes
    K tasked:                  Yes
    wK tasked:                  No
    Memory [MiB]:              375
    Schwarz Cutoff:          1E-12

    OpenMP threads:              1

  Minimum eigenvalue in the overlap matrix is 5.1453079343E-03.
  Using Symmetric Orthogonalization.

  SCF Guess: Superposition of Atomic Densities via on-the-fly atomic UHF.

  ==> Iterations <==

                        Total Energy        Delta E     RMS |[F,P]|

   @RHF iter SAD:  -196.47313783921263   -1.96473e+02   0.00000e+00
   @RHF iter   1:  -197.29848670153137   -8.25349e-01   3.81847e-03 DIIS
   @RHF iter   2:  -197.46103351692628   -1.62547e-01   1.62932e-03 DIIS
   @RHF iter   3:  -197.48918391311088   -2.81504e-02   3.28245e-04 DIIS
   @RHF iter   4:  -197.49144445117420   -2.26054e-03   4.79710e-05 DIIS
   @RHF iter   5:  -197.49148318677672   -3.87356e-05   1.49686e-05 DIIS
   @RHF iter   6:  -197.49148662092415   -3.43415e-06   2.39805e-06 DIIS
   @RHF iter   7:  -197.49148673092327   -1.09999e-07   4.94587e-07 DIIS
   @RHF iter   8:  -197.49148673619968   -5.27641e-09   1.35295e-07 DIIS
   @RHF iter   9:  -197.49148673659164   -3.91964e-10   4.26452e-08 DIIS
   @RHF iter  10:  -197.49148673663518   -4.35421e-11   9.40843e-09 DIIS
   @RHF iter  11:  -197.49148673663700   -1.81899e-12   1.80124e-09 DIIS
   @RHF iter  12:  -197.49148673663774   -7.38964e-13   3.63739e-10 DIIS
   @RHF iter  13:  -197.49148673663638    1.36424e-12   6.18673e-11 DIIS
  Energy and wave function converged.

  ==> Post-Iterations <==

    Orbital Energies [Eh]
    ---------------------

    Doubly Occupied:

       1A    -11.218577     2A    -11.216050     3A    -11.214547
       4A    -11.214514     5A    -11.210755     6A     -1.053723
       7A     -1.020913     8A     -0.924710     9A     -0.837953
      10A     -0.794478    11A     -0.629813    12A     -0.608496
      13A     -0.599780    14A     -0.585832    15A     -0.550050
      16A     -0.533427    17A     -0.502037    18A     -0.492573
      19A     -0.484281    20A     -0.468140    21A     -0.467160
      22A     -0.453312

    Virtual:

      23A      0.171424    24A      0.195576    25A      0.214448
      26A      0.224298    27A      0.244380    28A      0.248674
      29A      0.256327    30A      0.264533    31A      0.284022
      32A      0.294816    33A      0.295786    34A      0.304771
      35A      0.330353    36A      0.363023    37A      0.382082
      38A      0.411009    39A      0.428300    40A      0.571028
      41A      0.582681    42A      0.598193    43A      0.602553
      44A      0.611898    45A      0.622309    46A      0.655706
      47A      0.690202    48A      0.704985    49A      0.787903
      50A      0.810898    51A      0.839464    52A      0.845488
      53A      0.860628    54A      0.868891    55A      0.881921
      56A      0.886705    57A      0.898455    58A      0.900648
      59A      0.903188    60A      0.907919    61A      0.929085
      62A      0.934961    63A      0.943559    64A      0.952992
      65A      0.964347    66A      0.989042    67A      0.998255
      68A      1.053451    69A      1.109131    70A      1.119222
      71A      1.131063    72A      1.195316    73A      1.251456
      74A      1.263691    75A      1.395808    76A      1.461379
      77A      1.471635    78A      1.486844    79A      1.512688
      80A      1.520426    81A      1.613348    82A      1.653609
      83A      1.678752    84A      1.684472    85A      1.690254
      86A      1.706204    87A      1.716595    88A      1.847267
      89A      1.866968    90A      1.870875    91A      1.875425
      92A      1.888978    93A      1.899846    94A      1.914814
      95A      1.916943    96A      1.936719    97A      1.942540
      98A      1.952238    99A      1.964016   100A      1.971919
     101A      1.976098   102A      1.983862   103A      2.003977
     104A      2.011335   105A      2.034519   106A      2.036987
     107A      2.116438   108A      2.148614   109A      2.152510
     110A      2.166648   111A      2.206333   112A      2.288580
     113A      2.292360   114A      2.302310   115A      2.309835
     116A      2.333639   117A      2.357375   118A      2.441938
     119A      2.465711   120A      2.493933   121A      2.536063
     122A      2.588402   123A      2.601311   124A      2.610447
     125A      2.633517   126A      2.651805   127A      2.760049
     128A      2.763931   129A      2.767949   130A      2.778222
     131A      2.802531   132A      2.823468   133A      2.830946
     134A      2.867448   135A      2.925333   136A      2.954380
     137A      2.968467   138A      2.991638   139A      3.029629
     140A      3.103745

    Final Occupation by Irrep:
              A
    DOCC [    22 ]

  @RHF Final Energy:  -197.49148673663638

   => Energetics <=

    Nuclear Repulsion Energy =            184.2579502638054691
    One-Electron Energy =                -629.3366322722365567
    Two-Electron Energy =                 247.5871952717947124
    Total Energy =                       -197.4914867366363751

Computation Completed

Properties will be evaluated at   0.000000,   0.000000,   0.000000 [a0]

Properties computed using the SCF density matrix

  Nuclear Dipole Moment: [e a0]
     X:    -0.8351      Y:     0.6309      Z:    -0.3183

  Electronic Dipole Moment: [e a0]
     X:     0.7702      Y:    -0.5820      Z:     0.2876

  Dipole Moment: [e a0]
     X:    -0.0649      Y:     0.0489      Z:    -0.0306     Total:     0.0868

  Dipole Moment: [D]
     X:    -0.1649      Y:     0.1243      Z:    -0.0779     Total:     0.2207

*** tstop() called on ds3 at Mon Apr 27 18:38:06 2020
Module time:
	user time   =      16.71 seconds =       0.28 minutes
	system time =       6.78 seconds =       0.11 minutes
	total time  =         23 seconds =       0.38 minutes
Total time:
	user time   =      16.71 seconds =       0.28 minutes
	system time =       6.78 seconds =       0.11 minutes
	total time  =         23 seconds =       0.38 minutes
                                     G D M A

                                 by Anthony Stone

                           version 2.2.06, 22 June 2011

               Distributed Multipoles from Gaussian wavefunctions

Starting at 18:38:6 on 27 Apr 2020

Using SCF density matrix from file ./SSI/SSI-001LYS-027THR-2-dimer.test.26137.fchk

                         Distributed Multipole Analysis

Standard DMA

Positions and radii in angstrom
Multipole moments in atomic units, ea_0^k for rank k

C          x =  0.960562  y = -0.712304  z =  0.349502 angstrom
           Maximum rank =  0   Radius =  0.650 angstrom
                   Q00  =  -0.074895

C          x =  1.380562  y = -2.171304  z =  0.227502 angstrom
           Maximum rank =  0   Radius =  0.650 angstrom
                   Q00  =  -0.231698

C          x =  0.730562  y = -0.230304  z =  1.780502 angstrom
           Maximum rank =  0   Radius =  0.650 angstrom
                   Q00  =  -0.261057

H          x =  1.702562  y = -0.067304  z = -0.129498 angstrom
           Maximum rank =  0   Radius =  0.325 angstrom
                   Q00  =   0.042229

H          x =  0.057562  y = -0.655304  z = -0.207498 angstrom
           Maximum rank =  0   Radius =  0.325 angstrom
                   Q00  =   0.056724

H          x =  0.646562  y = -2.804304  z =  0.737502 angstrom
           Maximum rank =  0   Radius =  0.325 angstrom
                   Q00  =   0.072211

H          x =  1.585562  y = -0.461304  z =  2.416502 angstrom
           Maximum rank =  0   Radius =  0.325 angstrom
                   Q00  =   0.080023

H          x =  0.646562  y =  0.854696  z =  1.733502 angstrom
           Maximum rank =  0   Radius =  0.325 angstrom
                   Q00  =   0.078249

H          x =  2.367016  y = -2.321624  z =  0.690442 angstrom
           Maximum rank =  0   Radius =  0.325 angstrom
                   Q00  =   0.073525

H          x =  1.392825  y = -2.471384  z = -0.830708 angstrom
           Maximum rank =  0   Radius =  0.325 angstrom
                   Q00  =   0.080152

H          x = -0.185909  y = -0.662264  z =  2.208862 angstrom
           Maximum rank =  0   Radius =  0.325 angstrom
                   Q00  =   0.080055

C          x = -1.674438  y =  0.962696  z = -0.686498 angstrom
           Maximum rank =  0   Radius =  0.650 angstrom
                   Q00  =  -0.202090

C          x = -1.322438  y =  2.094696  z = -1.642498 angstrom
           Maximum rank =  0   Radius =  0.650 angstrom
                   Q00  =  -0.237178

H          x = -1.543438  y = -0.004304  z = -1.167498 angstrom
           Maximum rank =  0   Radius =  0.325 angstrom
                   Q00  =   0.062584

H          x = -1.121438  y =  1.092696  z =  0.237502 angstrom
           Maximum rank =  0   Radius =  0.325 angstrom
                   Q00  =   0.068123

H          x = -2.730438  y =  1.046696  z = -0.421498 angstrom
           Maximum rank =  0   Radius =  0.325 angstrom
                   Q00  =   0.076889

H          x = -1.858438  y =  2.992696  z = -1.335498 angstrom
           Maximum rank =  0   Radius =  0.325 angstrom
                   Q00  =   0.083197

H          x = -1.606959  y =  1.833109  z = -2.672358 angstrom
           Maximum rank =  0   Radius =  0.325 angstrom
                   Q00  =   0.078453

H          x = -0.242802  y =  2.300892  z = -1.599248 angstrom
           Maximum rank =  0   Radius =  0.325 angstrom
                   Q00  =   0.074503

Total multipoles referred to origin at
           x =   0.000000,  y =    0.000000,  z =    0.000000 angstrom
                   Q00  =  -0.000000

Finished at 18:38:6 on 27 Apr 2020

  DMA results are available in the Python driver through the
	  variable('DMA DISTRIBUTED MULTIPOLES')
  and
	  variable('DMA TOTAL MULTIPOLES')
  commands.

    Psi4 stopped on: Monday, 27 April 2020 06:38PM
    Psi4 wall time for execution: 0:00:22.99

*** Psi4 exiting successfully. Buy a developer a beer!
