                               Psi4 1.3.2 release

  ==> Input File <==

--------------------------------------------------------------------------
import numpy as np
set {scf_type pk
basis cc-pvdz
d_convergence 10
gdma_switch   0
gdma_limit    0
gdma_origin   [ 0.0,  0.0,  0.0 ]
}
molecule test {
    units Angstrom
    0 1
    --
    0 1
    C               -0.641731846756407    -2.670420919871504    -0.435890319835171
    C                0.113268153243593    -0.594420919871504    -1.605890319835171
    C                0.412268153243593    -1.637420919871504    -0.737890319835171
    C                1.070268153243593     0.386579080128496    -1.893890319835171
    C                2.314268153243593     0.339579080128496    -1.290890319835171
    C                1.646268153243593    -1.629420919871504    -0.083890319835171
    C                2.586268153243593    -0.662420919871504    -0.357890319835171
    H               -0.853731846756407    -0.553420919871504    -2.089890319835171
    H                0.841268153243593     1.177579080128496    -2.595890319835171
    H               -1.028731846756407    -3.007420919871504    -1.397890319835172
    H               -1.458731846756407    -2.187420919871504     0.099109680164829
    H                3.060268153243593     1.089579080128495    -1.517890319835171
    H                1.969268153243593    -2.411420919871504     0.566109680164829
    H                3.554268153243593    -0.693420919871504     0.124109680164829
    H               -0.282681846756407    -3.551201919871504     0.116659680164829
    C               -1.734731846756407     1.215579080128496     1.152109680164829
    C               -1.717731846756407     2.593579080128496     0.466109680164829
    C               -0.245731846756407     0.866579080128496     1.532109680164829
    O               -2.650731846756407     1.195579080128496     2.282109680164829
    H               -2.062731846756408     0.472579080128496     0.425109680164829
    H               -1.001731846756407     2.542579080128496    -0.354890319835171
    H                0.084268153243593     1.485579080128496     2.368109680164828
    H               -0.185731846756407    -0.180420919871504     1.828109680164829
    H                0.416268153243593     1.041579080128496     0.688109680164829
    H               -2.131731846756407     0.956579080128496     3.078109680164828
    H               -1.433351846756407     3.364939080128496     1.196949680164829
    H               -2.695291846756406     2.818555080128496     0.014709680164829

}
e, wfn = energy('scf', return_wfn=True)
gdma(wfn)
dmavals = variable('DMA DISTRIBUTED MULTIPOLES')
charges = np.array(dmavals)
print(charges)
np.save('SSI-026PHE-217THR-1-dimer.npy', np.array(charges))--------------------------------------------------------------------------

*** tstart() called on ds3
*** at Mon Apr 27 23:36:20 2020

   => Loading Basis Set <=

    Name: CC-PVDZ
    Role: ORBITAL
    Keyword: BASIS
    atoms 1-7, 16-18  entry C          line   138 file /theoryfs2/ds/metcalf/miniconda2/envs/tf2gpu/share/psi4/basis/cc-pvdz.gbs
    atoms 8-15, 20-27 entry H          line    22 file /theoryfs2/ds/metcalf/miniconda2/envs/tf2gpu/share/psi4/basis/cc-pvdz.gbs
    atoms 19          entry O          line   198 file /theoryfs2/ds/metcalf/miniconda2/envs/tf2gpu/share/psi4/basis/cc-pvdz.gbs

         ---------------------------------------------------------
                                   SCF
               by Justin Turney, Rob Parrish, Andy Simmonett
                          and Daniel G. A. Smith
                              RHF Reference
                        1 Threads,    500 MiB Core
         ---------------------------------------------------------

  ==> Geometry <==

    Molecular point group: c1
    Full point group: C1

    Geometry (in Angstrom), charge = 0, multiplicity = 1:

       Center              X                  Y                   Z               Mass
    ------------   -----------------  -----------------  -----------------  -----------------
         C           -0.641731846756    -2.670420919872    -0.435890319835    12.000000000000
         C            0.113268153244    -0.594420919872    -1.605890319835    12.000000000000
         C            0.412268153244    -1.637420919872    -0.737890319835    12.000000000000
         C            1.070268153244     0.386579080128    -1.893890319835    12.000000000000
         C            2.314268153244     0.339579080128    -1.290890319835    12.000000000000
         C            1.646268153244    -1.629420919872    -0.083890319835    12.000000000000
         C            2.586268153244    -0.662420919872    -0.357890319835    12.000000000000
         H           -0.853731846756    -0.553420919872    -2.089890319835     1.007825032230
         H            0.841268153244     1.177579080128    -2.595890319835     1.007825032230
         H           -1.028731846756    -3.007420919872    -1.397890319835     1.007825032230
         H           -1.458731846756    -2.187420919872     0.099109680165     1.007825032230
         H            3.060268153244     1.089579080128    -1.517890319835     1.007825032230
         H            1.969268153244    -2.411420919872     0.566109680165     1.007825032230
         H            3.554268153244    -0.693420919872     0.124109680165     1.007825032230
         H           -0.282681846756    -3.551201919872     0.116659680165     1.007825032230
         C           -1.734731846756     1.215579080128     1.152109680165    12.000000000000
         C           -1.717731846756     2.593579080128     0.466109680165    12.000000000000
         C           -0.245731846756     0.866579080128     1.532109680165    12.000000000000
         O           -2.650731846756     1.195579080128     2.282109680165    15.994914619570
         H           -2.062731846756     0.472579080128     0.425109680165     1.007825032230
         H           -1.001731846756     2.542579080128    -0.354890319835     1.007825032230
         H            0.084268153244     1.485579080128     2.368109680165     1.007825032230
         H           -0.185731846756    -0.180420919872     1.828109680165     1.007825032230
         H            0.416268153244     1.041579080128     0.688109680165     1.007825032230
         H           -2.131731846756     0.956579080128     3.078109680165     1.007825032230
         H           -1.433351846756     3.364939080128     1.196949680165     1.007825032230
         H           -2.695291846756     2.818555080128     0.014709680165     1.007825032230

  Running in c1 symmetry.

  Rotational constants: A =      0.04870  B =      0.02025  C =      0.01780 [cm^-1]
  Rotational constants: A =   1460.08691  B =    606.96809  C =    533.65176 [MHz]
  Nuclear repulsion =  600.170044055870221

  Charge       = 0
  Multiplicity = 1
  Electrons    = 84
  Nalpha       = 42
  Nbeta        = 42

  ==> Algorithm <==

  SCF Algorithm Type is PK.
  DIIS enabled.
  MOM disabled.
  Fractional occupation disabled.
  Guess Type is SAD.
  Energy threshold   = 1.00e-06
  Density threshold  = 1.00e-10
  Integral threshold = 0.00e+00

  ==> Primary Basis <==

  Basis Set: CC-PVDZ
    Blend: CC-PVDZ
    Number of shells: 114
    Number of basis function: 234
    Number of Cartesian functions: 245
    Spherical Harmonics?: true
    Max angular momentum: 2

  ==> Pre-Iterations <==

   -------------------------------------------------------
    Irrep   Nso     Nmo     Nalpha   Nbeta   Ndocc  Nsocc
   -------------------------------------------------------
     A        234     234       0       0       0       0
   -------------------------------------------------------
    Total     234     234      42      42      42       0
   -------------------------------------------------------

  ==> Integral Setup <==

  Using integral reordering PK algorithm.
  Sizing the integral batches needed.
  Building batch lookup table.
   Calculation information:
      Number of atoms:                  27
      Number of AO shells:             114
      Number of primitives:            322
      Number of atomic orbitals:       245
      Number of basis functions:       234

      Integral cutoff                 1.00e-12
      Number of threads:                 1

	Batch   1 pq = [       0,    9405] index = [             0,44231715] size =     44231715
	Batch   2 pq = [    9405,   13301] index = [      44231715,88464951] size =     44233236
	Batch   3 pq = [   13301,   16290] index = [      88464951,132690195] size =     44225244
	Batch   4 pq = [   16290,   18810] index = [     132690195,176917455] size =     44227260
	Batch   5 pq = [   18810,   21030] index = [     176917455,221140965] size =     44223510
	Batch   6 pq = [   21030,   23037] index = [     221140965,265363203] size =     44222238
	Batch   7 pq = [   23037,   24883] index = [     265363203,309594286] size =     44231083
	Batch   8 pq = [   24883,   26601] index = [     309594286,353819901] size =     44225615
	Batch   9 pq = [   26601,   27495] index = [     353819901,378001260] size =     24181359
  Task number: 35
  Buffer size: 11059200
  Buffer per thread: 2
  We computed 23459234 shell quartets total.
  Whereas there are 21487290 unique shell quartets.
     9.18 percent of shell quartets recomputed by reordering.

  ==> DiskJK: Disk-Based J/K Matrices <==

    J tasked:                  Yes
    K tasked:                  Yes
    wK tasked:                  No
    Memory [MiB]:              375
    Schwarz Cutoff:          1E-12

    OpenMP threads:              1

  Minimum eigenvalue in the overlap matrix is 3.1701163601E-04.
  Using Symmetric Orthogonalization.

  SCF Guess: Superposition of Atomic Densities via on-the-fly atomic UHF.

  ==> Iterations <==

                        Total Energy        Delta E     RMS |[F,P]|

   @RHF iter SAD:  -461.53938355767957   -4.61539e+02   0.00000e+00
   @RHF iter   1:  -462.59742430991241   -1.05804e+00   2.81298e-03 DIIS
   @RHF iter   2:  -462.83723208923868   -2.39808e-01   1.22538e-03 DIIS
   @RHF iter   3:  -462.87577168956523   -3.85396e-02   2.64736e-04 DIIS
   @RHF iter   4:  -462.87889743319982   -3.12574e-03   8.32803e-05 DIIS
   @RHF iter   5:  -462.87910460608578   -2.07173e-04   1.78910e-05 DIIS
   @RHF iter   6:  -462.87911736862645   -1.27625e-05   4.86837e-06 DIIS
   @RHF iter   7:  -462.87911848232534   -1.11370e-06   1.69702e-06 DIIS
   @RHF iter   8:  -462.87911861953876   -1.37213e-07   5.40983e-07 DIIS
   @RHF iter   9:  -462.87911864065029   -2.11115e-08   2.26710e-07 DIIS
   @RHF iter  10:  -462.87911864441037   -3.76008e-09   6.95788e-08 DIIS
   @RHF iter  11:  -462.87911864519265   -7.82279e-10   2.95560e-08 DIIS
   @RHF iter  12:  -462.87911864536716   -1.74509e-10   1.32556e-08 DIIS
   @RHF iter  13:  -462.87911864539637   -2.92175e-11   5.33326e-09 DIIS
   @RHF iter  14:  -462.87911864540047   -4.09273e-12   1.69704e-09 DIIS
   @RHF iter  15:  -462.87911864540251   -2.04636e-12   5.01072e-10 DIIS
   @RHF iter  16:  -462.87911864539967    2.84217e-12   1.42997e-10 DIIS
   @RHF iter  17:  -462.87911864540411   -4.43379e-12   6.16343e-11 DIIS
  Energy and wave function converged.

  ==> Post-Iterations <==

    Orbital Energies [Eh]
    ---------------------

    Doubly Occupied:

       1A    -20.543865     2A    -11.276228     3A    -11.247667
       4A    -11.242088     5A    -11.239118     6A    -11.236646
       7A    -11.236146     8A    -11.233964     9A    -11.232854
      10A    -11.215550    11A    -11.212839    12A     -1.330904
      13A     -1.161047    14A     -1.050838    15A     -1.028269
      16A     -1.019713    17A     -0.937293    18A     -0.923216
      19A     -0.829613    20A     -0.803358    21A     -0.794406
      22A     -0.697607    23A     -0.647057    24A     -0.638290
      25A     -0.635010    26A     -0.630595    27A     -0.590728
      28A     -0.588993    29A     -0.582440    30A     -0.568656
      31A     -0.541768    32A     -0.541589    33A     -0.533225
      34A     -0.512375    35A     -0.507842    36A     -0.490615
      37A     -0.486818    38A     -0.483410    39A     -0.444591
      40A     -0.423481    41A     -0.339751    42A     -0.327800

    Virtual:

      43A      0.126992    44A      0.134525    45A      0.169205
      46A      0.190838    47A      0.195740    48A      0.203765
      49A      0.229788    50A      0.235821    51A      0.241949
      52A      0.246917    53A      0.253239    54A      0.265783
      55A      0.271804    56A      0.285547    57A      0.289629
      58A      0.304620    59A      0.336348    60A      0.341655
      61A      0.357827    62A      0.375138    63A      0.383300
      64A      0.405559    65A      0.424959    66A      0.447259
      67A      0.458836    68A      0.470722    69A      0.495223
      70A      0.552481    71A      0.571441    72A      0.595509
      73A      0.609172    74A      0.631240    75A      0.646445
      76A      0.675549    77A      0.679527    78A      0.687390
      79A      0.693009    80A      0.702564    81A      0.733380
      82A      0.739292    83A      0.745304    84A      0.751467
      85A      0.763005    86A      0.776196    87A      0.786329
      88A      0.792672    89A      0.816227    90A      0.831664
      91A      0.835655    92A      0.836337    93A      0.854235
      94A      0.855847    95A      0.865493    96A      0.869789
      97A      0.884776    98A      0.886860    99A      0.893620
     100A      0.899113   101A      0.913583   102A      0.919905
     103A      0.921959   104A      0.933581   105A      0.957211
     106A      0.963262   107A      0.971520   108A      0.983858
     109A      0.989123   110A      1.007686   111A      1.022629
     112A      1.053247   113A      1.111054   114A      1.115179
     115A      1.134692   116A      1.136463   117A      1.149643
     118A      1.154084   119A      1.162590   120A      1.182775
     121A      1.217217   122A      1.240102   123A      1.250557
     124A      1.260015   125A      1.269653   126A      1.285096
     127A      1.297863   128A      1.302233   129A      1.321388
     130A      1.336391   131A      1.343459   132A      1.387320
     133A      1.418379   134A      1.432026   135A      1.487708
     136A      1.499614   137A      1.521399   138A      1.544270
     139A      1.569418   140A      1.577256   141A      1.591150
     142A      1.632754   143A      1.657291   144A      1.658723
     145A      1.684763   146A      1.688710   147A      1.705145
     148A      1.727735   149A      1.746270   150A      1.759465
     151A      1.768085   152A      1.804867   153A      1.811194
     154A      1.838500   155A      1.839506   156A      1.867058
     157A      1.874551   158A      1.886020   159A      1.891859
     160A      1.897356   161A      1.912488   162A      1.917038
     163A      1.927298   164A      1.933709   165A      1.949154
     166A      1.951874   167A      1.957929   168A      1.972590
     169A      1.985969   170A      1.996064   171A      2.000932
     172A      2.008092   173A      2.019988   174A      2.036425
     175A      2.044707   176A      2.056020   177A      2.073995
     178A      2.090847   179A      2.116994   180A      2.125426
     181A      2.151252   182A      2.154475   183A      2.160465
     184A      2.177775   185A      2.193754   186A      2.202097
     187A      2.233005   188A      2.241765   189A      2.267730
     190A      2.272957   191A      2.282145   192A      2.292199
     193A      2.300119   194A      2.313772   195A      2.322937
     196A      2.366530   197A      2.375073   198A      2.426508
     199A      2.451789   200A      2.477502   201A      2.492817
     202A      2.521963   203A      2.524101   204A      2.535685
     205A      2.565550   206A      2.608672   207A      2.637434
     208A      2.645727   209A      2.730231   210A      2.746681
     211A      2.770946   212A      2.775679   213A      2.790865
     214A      2.802593   215A      2.810136   216A      2.820001
     217A      2.841416   218A      2.850434   219A      2.869631
     220A      2.888868   221A      2.937507   222A      2.984689
     223A      2.997999   224A      3.007412   225A      3.039428
     226A      3.157828   227A      3.207317   228A      3.299654
     229A      3.310082   230A      3.404988   231A      3.461235
     232A      3.657692   233A      3.964372   234A      4.106463

    Final Occupation by Irrep:
              A
    DOCC [    42 ]

  @RHF Final Energy:  -462.87911864540411

   => Energetics <=

    Nuclear Repulsion Energy =            600.1700440558702212
    One-Electron Energy =               -1818.0817969225279285
    Two-Electron Energy =                 755.0326342212536019
    Total Energy =                       -462.8791186454041053

Computation Completed

Properties will be evaluated at   0.000000,   0.000000,   0.000000 [a0]

Properties computed using the SCF density matrix

  Nuclear Dipole Moment: [e a0]
     X:    -3.0209      Y:     2.2227      Z:     2.4003

  Electronic Dipole Moment: [e a0]
     X:     3.7812      Y:    -2.5598      Z:    -2.4859

  Dipole Moment: [e a0]
     X:     0.7603      Y:    -0.3371      Z:    -0.0856     Total:     0.8361

  Dipole Moment: [D]
     X:     1.9325      Y:    -0.8569      Z:    -0.2176     Total:     2.1251

*** tstop() called on ds3 at Mon Apr 27 23:40:27 2020
Module time:
	user time   =     193.68 seconds =       3.23 minutes
	system time =      62.53 seconds =       1.04 minutes
	total time  =        247 seconds =       4.12 minutes
Total time:
	user time   =     193.68 seconds =       3.23 minutes
	system time =      62.53 seconds =       1.04 minutes
	total time  =        247 seconds =       4.12 minutes
                                     G D M A

                                 by Anthony Stone

                           version 2.2.06, 22 June 2011

               Distributed Multipoles from Gaussian wavefunctions

Starting at 23:40:27 on 27 Apr 2020

Using SCF density matrix from file ./SSI/SSI-026PHE-217THR-1-dimer.test.3422.fchk

                         Distributed Multipole Analysis

Standard DMA

Positions and radii in angstrom
Multipole moments in atomic units, ea_0^k for rank k

C          x = -0.641732  y = -2.670421  z = -0.435890 angstrom
           Maximum rank =  0   Radius =  0.650 angstrom
                   Q00  =  -0.203762

C          x =  0.113268  y = -0.594421  z = -1.605890 angstrom
           Maximum rank =  0   Radius =  0.650 angstrom
                   Q00  =  -0.105637

C          x =  0.412268  y = -1.637421  z = -0.737890 angstrom
           Maximum rank =  0   Radius =  0.650 angstrom
                   Q00  =  -0.077900

C          x =  1.070268  y =  0.386579  z = -1.893890 angstrom
           Maximum rank =  0   Radius =  0.650 angstrom
                   Q00  =  -0.082811

C          x =  2.314268  y =  0.339579  z = -1.290890 angstrom
           Maximum rank =  0   Radius =  0.650 angstrom
                   Q00  =  -0.088136

C          x =  1.646268  y = -1.629421  z = -0.083890 angstrom
           Maximum rank =  0   Radius =  0.650 angstrom
                   Q00  =  -0.008674

C          x =  2.586268  y = -0.662421  z = -0.357890 angstrom
           Maximum rank =  0   Radius =  0.650 angstrom
                   Q00  =  -0.045193

H          x = -0.853732  y = -0.553421  z = -2.089890 angstrom
           Maximum rank =  0   Radius =  0.325 angstrom
                   Q00  =   0.059016

H          x =  0.841268  y =  1.177579  z = -2.595890 angstrom
           Maximum rank =  0   Radius =  0.325 angstrom
                   Q00  =   0.066728

H          x = -1.028732  y = -3.007421  z = -1.397890 angstrom
           Maximum rank =  0   Radius =  0.325 angstrom
                   Q00  =   0.099688

H          x = -1.458732  y = -2.187421  z =  0.099110 angstrom
           Maximum rank =  0   Radius =  0.325 angstrom
                   Q00  =   0.103827

H          x =  3.060268  y =  1.089579  z = -1.517890 angstrom
           Maximum rank =  0   Radius =  0.325 angstrom
                   Q00  =   0.063086

H          x =  1.969268  y = -2.411421  z =  0.566110 angstrom
           Maximum rank =  0   Radius =  0.325 angstrom
                   Q00  =   0.057118

H          x =  3.554268  y = -0.693421  z =  0.124110 angstrom
           Maximum rank =  0   Radius =  0.325 angstrom
                   Q00  =   0.065503

H          x = -0.282682  y = -3.551202  z =  0.116660 angstrom
           Maximum rank =  0   Radius =  0.325 angstrom
                   Q00  =   0.102724

C          x = -1.734732  y =  1.215579  z =  1.152110 angstrom
           Maximum rank =  0   Radius =  0.650 angstrom
                   Q00  =   0.212020

C          x = -1.717732  y =  2.593579  z =  0.466110 angstrom
           Maximum rank =  0   Radius =  0.650 angstrom
                   Q00  =  -0.253946

C          x = -0.245732  y =  0.866579  z =  1.532110 angstrom
           Maximum rank =  0   Radius =  0.650 angstrom
                   Q00  =  -0.265778

O          x = -2.650732  y =  1.195579  z =  2.282110 angstrom
           Maximum rank =  0   Radius =  0.650 angstrom
                   Q00  =  -0.634823

H          x = -2.062732  y =  0.472579  z =  0.425110 angstrom
           Maximum rank =  0   Radius =  0.325 angstrom
                   Q00  =   0.026918

H          x = -1.001732  y =  2.542579  z = -0.354890 angstrom
           Maximum rank =  0   Radius =  0.325 angstrom
                   Q00  =   0.075393

H          x =  0.084268  y =  1.485579  z =  2.368110 angstrom
           Maximum rank =  0   Radius =  0.325 angstrom
                   Q00  =   0.073047

H          x = -0.185732  y = -0.180421  z =  1.828110 angstrom
           Maximum rank =  0   Radius =  0.325 angstrom
                   Q00  =   0.079832

H          x =  0.416268  y =  1.041579  z =  0.688110 angstrom
           Maximum rank =  0   Radius =  0.325 angstrom
                   Q00  =   0.114308

H          x = -2.131732  y =  0.956579  z =  3.078110 angstrom
           Maximum rank =  0   Radius =  0.325 angstrom
                   Q00  =   0.390683

H          x = -1.433352  y =  3.364939  z =  1.196950 angstrom
           Maximum rank =  0   Radius =  0.325 angstrom
                   Q00  =   0.086641

H          x = -2.695292  y =  2.818555  z =  0.014710 angstrom
           Maximum rank =  0   Radius =  0.325 angstrom
                   Q00  =   0.090127

Total multipoles referred to origin at
           x =   0.000000,  y =    0.000000,  z =    0.000000 angstrom
                   Q00  =  -0.000000

Finished at 23:40:27 on 27 Apr 2020

  DMA results are available in the Python driver through the
	  variable('DMA DISTRIBUTED MULTIPOLES')
  and
	  variable('DMA TOTAL MULTIPOLES')
  commands.

    Psi4 stopped on: Monday, 27 April 2020 11:40PM
    Psi4 wall time for execution: 0:04:06.95

*** Psi4 exiting successfully. Buy a developer a beer!
