                               Psi4 1.3.2 release

  ==> Input File <==

--------------------------------------------------------------------------
import numpy as np
set {scf_type pk
basis cc-pvdz
d_convergence 10
gdma_switch   0
gdma_limit    0
gdma_origin   [ 0.0,  0.0,  0.0 ]
}
molecule test {
    units Angstrom
    0 1
    --
    0 1
    C               -0.835558047867066     0.965871699151454     0.279286373466364
    C               -1.705558047867066     2.184871699151454    -0.074713626533636
    C               -0.257558047867066     1.148871699151454     1.710286373466364
    O               -1.616558047867066    -0.239128300848546     0.227286373466364
    H               -0.016558047867066     0.889871699151454    -0.438713626533636
    H               -1.056558047867066     3.053871699151454    -0.178713626533636
    H               -1.069558047867066     1.228871699151454     2.434286373466364
    H                0.366441952132934     0.294871699151454     1.971286373466364
    H                0.344441952132934     2.056871699151453     1.754286373466364
    H               -1.056558047867066    -0.996128300848546     0.442286373466364
    H               -2.447578047867066     2.384301699151454     0.712456373466364
    H               -2.163098047867066     2.039851699151454    -1.064473626533636
    C                1.960441952132934    -1.570128300848546    -0.482713626533636
    C                2.470441952132934    -2.334128300848546    -1.664713626533636
    H                1.776441952132934    -0.540128300848546    -0.773713626533636
    H                1.036441952132934    -2.024128300848547    -0.130713626533636
    H                2.706441952132934    -1.602128300848546     0.310286373466364
    H                2.654441952132934    -3.361128300848546    -1.351713626533636
    H                3.400911952132934    -1.884108300848546    -2.041143626533636
    H                1.745851952132934    -2.453088300848547    -2.483753626533636

}
e, wfn = energy('scf', return_wfn=True)
gdma(wfn)
dmavals = variable('DMA DISTRIBUTED MULTIPOLES')
charges = np.array(dmavals)
print(charges)
np.save('SSI-003THR-181VAL-1-dimer.npy', np.array(charges))--------------------------------------------------------------------------

*** tstart() called on ds3
*** at Tue Apr 28 14:10:41 2020

   => Loading Basis Set <=

    Name: CC-PVDZ
    Role: ORBITAL
    Keyword: BASIS
    atoms 1-3, 13-14  entry C          line   138 file /theoryfs2/ds/metcalf/miniconda2/envs/tf2gpu/share/psi4/basis/cc-pvdz.gbs
    atoms 4           entry O          line   198 file /theoryfs2/ds/metcalf/miniconda2/envs/tf2gpu/share/psi4/basis/cc-pvdz.gbs
    atoms 5-12, 15-20 entry H          line    22 file /theoryfs2/ds/metcalf/miniconda2/envs/tf2gpu/share/psi4/basis/cc-pvdz.gbs

         ---------------------------------------------------------
                                   SCF
               by Justin Turney, Rob Parrish, Andy Simmonett
                          and Daniel G. A. Smith
                              RHF Reference
                        1 Threads,    500 MiB Core
         ---------------------------------------------------------

  ==> Geometry <==

    Molecular point group: c1
    Full point group: C1

    Geometry (in Angstrom), charge = 0, multiplicity = 1:

       Center              X                  Y                   Z               Mass
    ------------   -----------------  -----------------  -----------------  -----------------
         C           -0.835558047867     0.965871699151     0.279286373466    12.000000000000
         C           -1.705558047867     2.184871699151    -0.074713626534    12.000000000000
         C           -0.257558047867     1.148871699151     1.710286373466    12.000000000000
         O           -1.616558047867    -0.239128300849     0.227286373466    15.994914619570
         H           -0.016558047867     0.889871699151    -0.438713626534     1.007825032230
         H           -1.056558047867     3.053871699151    -0.178713626534     1.007825032230
         H           -1.069558047867     1.228871699151     2.434286373466     1.007825032230
         H            0.366441952133     0.294871699151     1.971286373466     1.007825032230
         H            0.344441952133     2.056871699151     1.754286373466     1.007825032230
         H           -1.056558047867    -0.996128300849     0.442286373466     1.007825032230
         H           -2.447578047867     2.384301699151     0.712456373466     1.007825032230
         H           -2.163098047867     2.039851699151    -1.064473626534     1.007825032230
         C            1.960441952133    -1.570128300849    -0.482713626534    12.000000000000
         C            2.470441952133    -2.334128300849    -1.664713626534    12.000000000000
         H            1.776441952133    -0.540128300849    -0.773713626534     1.007825032230
         H            1.036441952133    -2.024128300849    -0.130713626534     1.007825032230
         H            2.706441952133    -1.602128300849     0.310286373466     1.007825032230
         H            2.654441952133    -3.361128300849    -1.351713626534     1.007825032230
         H            3.400911952133    -1.884108300849    -2.041143626534     1.007825032230
         H            1.745851952133    -2.453088300849    -2.483753626534     1.007825032230

  Running in c1 symmetry.

  Rotational constants: A =      0.16763  B =      0.03190  C =      0.03067 [cm^-1]
  Rotational constants: A =   5025.36378  B =    956.24978  C =    919.40908 [MHz]
  Nuclear repulsion =  244.568625998632058

  Charge       = 0
  Multiplicity = 1
  Electrons    = 52
  Nalpha       = 26
  Nbeta        = 26

  ==> Algorithm <==

  SCF Algorithm Type is PK.
  DIIS enabled.
  MOM disabled.
  Fractional occupation disabled.
  Guess Type is SAD.
  Energy threshold   = 1.00e-06
  Density threshold  = 1.00e-10
  Integral threshold = 0.00e+00

  ==> Primary Basis <==

  Basis Set: CC-PVDZ
    Blend: CC-PVDZ
    Number of shells: 78
    Number of basis function: 154
    Number of Cartesian functions: 160
    Spherical Harmonics?: true
    Max angular momentum: 2

  ==> Pre-Iterations <==

   -------------------------------------------------------
    Irrep   Nso     Nmo     Nalpha   Nbeta   Ndocc  Nsocc
   -------------------------------------------------------
     A        154     154       0       0       0       0
   -------------------------------------------------------
    Total     154     154      26      26      26       0
   -------------------------------------------------------

  ==> Integral Setup <==

  Using integral reordering PK algorithm.
  Sizing the integral batches needed.
  Building batch lookup table.
   Calculation information:
      Number of atoms:                  20
      Number of AO shells:              78
      Number of primitives:            202
      Number of atomic orbitals:       160
      Number of basis functions:       154

      Integral cutoff                 1.00e-12
      Number of threads:                 1

	Batch   1 pq = [       0,    9405] index = [             0,44231715] size =     44231715
	Batch   2 pq = [    9405,   11935] index = [      44231715,71228080] size =     26996365
  Task number: 7
  Buffer size: 11059200
  Buffer per thread: 2
  We computed 3910500 shell quartets total.
  Whereas there are 4747821 unique shell quartets.

  ==> DiskJK: Disk-Based J/K Matrices <==

    J tasked:                  Yes
    K tasked:                  Yes
    wK tasked:                  No
    Memory [MiB]:              375
    Schwarz Cutoff:          1E-12

    OpenMP threads:              1

  Minimum eigenvalue in the overlap matrix is 4.6997561556E-03.
  Using Symmetric Orthogonalization.

  SCF Guess: Superposition of Atomic Densities via on-the-fly atomic UHF.

  ==> Iterations <==

                        Total Energy        Delta E     RMS |[F,P]|

   @RHF iter SAD:  -271.05674592735215   -2.71057e+02   0.00000e+00
   @RHF iter   1:  -272.14026424838534   -1.08352e+00   3.91323e-03 DIIS
   @RHF iter   2:  -272.32483609300755   -1.84572e-01   1.79897e-03 DIIS
   @RHF iter   3:  -272.35958024308030   -3.47442e-02   3.51504e-04 DIIS
   @RHF iter   4:  -272.36207073323112   -2.49049e-03   1.17356e-04 DIIS
   @RHF iter   5:  -272.36224249724864   -1.71764e-04   2.18545e-05 DIIS
   @RHF iter   6:  -272.36225139509122   -8.89784e-06   4.34566e-06 DIIS
   @RHF iter   7:  -272.36225181290382   -4.17813e-07   1.27062e-06 DIIS
   @RHF iter   8:  -272.36225184613579   -3.32320e-08   3.60970e-07 DIIS
   @RHF iter   9:  -272.36225185015746   -4.02167e-09   9.13917e-08 DIIS
   @RHF iter  10:  -272.36225185043838   -2.80920e-10   2.68763e-08 DIIS
   @RHF iter  11:  -272.36225185045748   -1.90994e-11   7.63973e-09 DIIS
   @RHF iter  12:  -272.36225185046004   -2.55795e-12   2.22920e-09 DIIS
   @RHF iter  13:  -272.36225185046032   -2.84217e-13   6.25848e-10 DIIS
   @RHF iter  14:  -272.36225185045930    1.02318e-12   1.52046e-10 DIIS
   @RHF iter  15:  -272.36225185045964   -3.41061e-13   5.43476e-11 DIIS
  Energy and wave function converged.

  ==> Post-Iterations <==

    Orbital Energies [Eh]
    ---------------------

    Doubly Occupied:

       1A    -20.544390     2A    -11.280973     3A    -11.224598
       4A    -11.222019     5A    -11.220458     6A    -11.219866
       7A     -1.343389     8A     -1.035422     9A     -1.034386
      10A     -0.931140    11A     -0.843358    12A     -0.796648
      13A     -0.686096    14A     -0.616401    15A     -0.613344
      16A     -0.605159    17A     -0.596546    18A     -0.541706
      19A     -0.534651    20A     -0.522442    21A     -0.517672
      22A     -0.507425    23A     -0.495597    24A     -0.483684
      25A     -0.458631    26A     -0.425887

    Virtual:

      27A      0.160531    28A      0.190771    29A      0.205919
      30A      0.222630    31A      0.225201    32A      0.245055
      33A      0.250786    34A      0.264504    35A      0.266128
      36A      0.279686    37A      0.297250    38A      0.306767
      39A      0.320694    40A      0.354499    41A      0.369023
      42A      0.406426    43A      0.417191    44A      0.426156
      45A      0.561935    46A      0.580681    47A      0.595344
      48A      0.600039    49A      0.629710    50A      0.653471
      51A      0.667281    52A      0.678645    53A      0.704641
      54A      0.763728    55A      0.785958    56A      0.798795
      57A      0.824957    58A      0.837233    59A      0.873580
      60A      0.878549    61A      0.882776    62A      0.888675
      63A      0.890290    64A      0.897017    65A      0.905695
      66A      0.913526    67A      0.916424    68A      0.930540
      69A      0.941902    70A      0.950785    71A      0.965719
      72A      0.981397    73A      0.995537    74A      1.113333
      75A      1.129298    76A      1.137761    77A      1.142055
      78A      1.173806    79A      1.241531    80A      1.301932
      81A      1.346590    82A      1.380223    83A      1.427440
      84A      1.462053    85A      1.482954    86A      1.496387
      87A      1.532346    88A      1.567878    89A      1.580403
      90A      1.618571    91A      1.673363    92A      1.679737
      93A      1.685843    94A      1.687213    95A      1.704650
      96A      1.717915    97A      1.820369    98A      1.840039
      99A      1.847981   100A      1.853268   101A      1.872166
     102A      1.891198   103A      1.918760   104A      1.926811
     105A      1.937019   106A      1.942799   107A      1.955068
     108A      1.957795   109A      1.966102   110A      1.983181
     111A      1.986311   112A      1.990851   113A      2.000707
     114A      2.036671   115A      2.056415   116A      2.085101
     117A      2.095056   118A      2.118351   119A      2.160139
     120A      2.222401   121A      2.239549   122A      2.290518
     123A      2.293074   124A      2.313272   125A      2.345595
     126A      2.366002   127A      2.442440   128A      2.459031
     129A      2.475041   130A      2.505354   131A      2.516020
     132A      2.544089   133A      2.555301   134A      2.579279
     135A      2.582279   136A      2.635460   137A      2.751079
     138A      2.760516   139A      2.773977   140A      2.788187
     141A      2.799204   142A      2.833206   143A      2.851306
     144A      2.866369   145A      2.879753   146A      2.904503
     147A      2.947510   148A      2.980350   149A      2.987886
     150A      3.331880   151A      3.407966   152A      3.456705
     153A      3.658913   154A      4.142854

    Final Occupation by Irrep:
              A
    DOCC [    26 ]

  @RHF Final Energy:  -272.36225185045964

   => Energetics <=

    Nuclear Repulsion Energy =            244.5686259986320579
    One-Electron Energy =                -853.2579800694904861
    Two-Electron Energy =                 336.3271022203987286
    Total Energy =                       -272.3622518504596428

Computation Completed

Properties will be evaluated at   0.000000,   0.000000,   0.000000 [a0]

Properties computed using the SCF density matrix

  Nuclear Dipole Moment: [e a0]
     X:     5.8247      Y:    -0.8564      Z:    -0.7846

  Electronic Dipole Moment: [e a0]
     X:    -5.1333      Y:     0.8911      Z:     0.8948

  Dipole Moment: [e a0]
     X:     0.6914      Y:     0.0347      Z:     0.1103     Total:     0.7010

  Dipole Moment: [D]
     X:     1.7574      Y:     0.0881      Z:     0.2802     Total:     1.7818

*** tstop() called on ds3 at Tue Apr 28 14:11:15 2020
Module time:
	user time   =      23.29 seconds =       0.39 minutes
	system time =      11.25 seconds =       0.19 minutes
	total time  =         34 seconds =       0.57 minutes
Total time:
	user time   =      23.29 seconds =       0.39 minutes
	system time =      11.25 seconds =       0.19 minutes
	total time  =         34 seconds =       0.57 minutes
                                     G D M A

                                 by Anthony Stone

                           version 2.2.06, 22 June 2011

               Distributed Multipoles from Gaussian wavefunctions

Starting at 14:11:15 on 28 Apr 2020

Using SCF density matrix from file ./SSI/SSI-003THR-181VAL-1-dimer.test.3329.fchk

                         Distributed Multipole Analysis

Standard DMA

Positions and radii in angstrom
Multipole moments in atomic units, ea_0^k for rank k

C          x = -0.835558  y =  0.965872  z =  0.279286 angstrom
           Maximum rank =  0   Radius =  0.650 angstrom
                   Q00  =   0.135608

C          x = -1.705558  y =  2.184872  z = -0.074714 angstrom
           Maximum rank =  0   Radius =  0.650 angstrom
                   Q00  =  -0.236548

C          x = -0.257558  y =  1.148872  z =  1.710286 angstrom
           Maximum rank =  0   Radius =  0.650 angstrom
                   Q00  =  -0.269650

O          x = -1.616558  y = -0.239128  z =  0.227286 angstrom
           Maximum rank =  0   Radius =  0.650 angstrom
                   Q00  =  -0.563664

H          x = -0.016558  y =  0.889872  z = -0.438714 angstrom
           Maximum rank =  0   Radius =  0.325 angstrom
                   Q00  =   0.013790

H          x = -1.056558  y =  3.053872  z = -0.178714 angstrom
           Maximum rank =  0   Radius =  0.325 angstrom
                   Q00  =   0.081059

H          x = -1.069558  y =  1.228872  z =  2.434286 angstrom
           Maximum rank =  0   Radius =  0.325 angstrom
                   Q00  =   0.094267

H          x =  0.366442  y =  0.294872  z =  1.971286 angstrom
           Maximum rank =  0   Radius =  0.325 angstrom
                   Q00  =   0.081392

H          x =  0.344442  y =  2.056872  z =  1.754286 angstrom
           Maximum rank =  0   Radius =  0.325 angstrom
                   Q00  =   0.081172

H          x = -1.056558  y = -0.996128  z =  0.442286 angstrom
           Maximum rank =  0   Radius =  0.325 angstrom
                   Q00  =   0.391516

H          x = -2.447578  y =  2.384302  z =  0.712456 angstrom
           Maximum rank =  0   Radius =  0.325 angstrom
                   Q00  =   0.091876

H          x = -2.163098  y =  2.039852  z = -1.064474 angstrom
           Maximum rank =  0   Radius =  0.325 angstrom
                   Q00  =   0.097679

C          x =  1.960442  y = -1.570128  z = -0.482714 angstrom
           Maximum rank =  0   Radius =  0.650 angstrom
                   Q00  =  -0.222310

C          x =  2.470442  y = -2.334128  z = -1.664714 angstrom
           Maximum rank =  0   Radius =  0.650 angstrom
                   Q00  =  -0.233608

H          x =  1.776442  y = -0.540128  z = -0.773714 angstrom
           Maximum rank =  0   Radius =  0.325 angstrom
                   Q00  =   0.078733

H          x =  1.036442  y = -2.024128  z = -0.130714 angstrom
           Maximum rank =  0   Radius =  0.325 angstrom
                   Q00  =   0.063499

H          x =  2.706442  y = -1.602128  z =  0.310286 angstrom
           Maximum rank =  0   Radius =  0.325 angstrom
                   Q00  =   0.081939

H          x =  2.654442  y = -3.361128  z = -1.351714 angstrom
           Maximum rank =  0   Radius =  0.325 angstrom
                   Q00  =   0.073047

H          x =  3.400912  y = -1.884108  z = -2.041144 angstrom
           Maximum rank =  0   Radius =  0.325 angstrom
                   Q00  =   0.079614

H          x =  1.745852  y = -2.453088  z = -2.483754 angstrom
           Maximum rank =  0   Radius =  0.325 angstrom
                   Q00  =   0.080589

Total multipoles referred to origin at
           x =   0.000000,  y =    0.000000,  z =    0.000000 angstrom
                   Q00  =  -0.000000

Finished at 14:11:15 on 28 Apr 2020

  DMA results are available in the Python driver through the
	  variable('DMA DISTRIBUTED MULTIPOLES')
  and
	  variable('DMA TOTAL MULTIPOLES')
  commands.

    Psi4 stopped on: Tuesday, 28 April 2020 02:11PM
    Psi4 wall time for execution: 0:00:33.52

*** Psi4 exiting successfully. Buy a developer a beer!
