                               Psi4 1.3.2 release

  ==> Input File <==

--------------------------------------------------------------------------
import numpy as np
set {scf_type pk
basis cc-pvdz
d_convergence 10
gdma_switch   0
gdma_limit    0
gdma_origin   [ 0.0,  0.0,  0.0 ]
}
molecule test {
    units Angstrom
    0 1
    --
    0 1
    C                2.729933756584890     0.992127514399316    -0.586166120805379
    C                3.285933756584889    -0.256872485600684    -1.254166120805378
    H                3.426933756584889     1.348127514399316     0.170833879194622
    H                2.580933756584890     1.758127514399316    -1.337166120805378
    H                1.777933756584890     0.769127514399316    -0.120166120805378
    H                2.658933756584890    -0.503872485600684    -2.106166120805379
    H                3.306266756584890    -1.104849785600684    -0.553796120805378
    H                4.317050756584890    -0.084657885600684    -1.596426120805379
    C               -1.588066243415110    -0.357872485600684    -2.588166120805378
    C               -0.735066243415110    -0.398872485600684    -0.131166120805378
    C               -1.294066243415110     0.257127514399316    -1.279166120805378
    C               -0.633066243415110     0.578127514399316     0.893833879194622
    C               -1.492066243415110     1.554127514399316    -0.927166120805378
    C               -0.297066243415110    -1.705872485600684     0.136833879194622
    C               -0.126066243415110     0.290127514399316     2.147833879194621
    C                0.220933756584890    -1.992872485600684     1.405833879194621
    C                0.298933756584890    -1.001872485600684     2.395833879194622
    N               -1.097066243415110     1.756127514399316     0.372833879194622
    H               -0.342066243415110    -2.465872485600684    -0.628166120805378
    H               -2.377066243415110     0.208127514399316    -3.087166120805378
    H               -1.971066243415110    -1.360872485600684    -2.401166120805378
    H               -1.901066243415110     2.320127514399316    -1.580166120805379
    H               -1.117066243415110     2.652127514399316     0.847833879194621
    H               -0.067066243415110     1.054127514399316     2.906833879194622
    H                0.546933756584890    -2.993872485600684     1.633833879194622
    H                0.703933756584890    -1.248872485600684     3.366833879194622
    H               -0.709257143415110    -0.426416685600684    -3.246186120805378

}
e, wfn = energy('scf', return_wfn=True)
gdma(wfn)
dmavals = variable('DMA DISTRIBUTED MULTIPOLES')
charges = np.array(dmavals)
print(charges)
np.save('SSI-041ALA-047TRP-1-dimer.npy', np.array(charges))--------------------------------------------------------------------------

*** tstart() called on ds3
*** at Mon Apr 27 20:45:06 2020

   => Loading Basis Set <=

    Name: CC-PVDZ
    Role: ORBITAL
    Keyword: BASIS
    atoms 1-2, 9-17  entry C          line   138 file /theoryfs2/ds/metcalf/miniconda2/envs/tf2gpu/share/psi4/basis/cc-pvdz.gbs
    atoms 3-8, 19-27 entry H          line    22 file /theoryfs2/ds/metcalf/miniconda2/envs/tf2gpu/share/psi4/basis/cc-pvdz.gbs
    atoms 18         entry N          line   168 file /theoryfs2/ds/metcalf/miniconda2/envs/tf2gpu/share/psi4/basis/cc-pvdz.gbs

         ---------------------------------------------------------
                                   SCF
               by Justin Turney, Rob Parrish, Andy Simmonett
                          and Daniel G. A. Smith
                              RHF Reference
                        1 Threads,    500 MiB Core
         ---------------------------------------------------------

  ==> Geometry <==

    Molecular point group: c1
    Full point group: C1

    Geometry (in Angstrom), charge = 0, multiplicity = 1:

       Center              X                  Y                   Z               Mass
    ------------   -----------------  -----------------  -----------------  -----------------
         C            2.729933756585     0.992127514399    -0.586166120805    12.000000000000
         C            3.285933756585    -0.256872485601    -1.254166120805    12.000000000000
         H            3.426933756585     1.348127514399     0.170833879195     1.007825032230
         H            2.580933756585     1.758127514399    -1.337166120805     1.007825032230
         H            1.777933756585     0.769127514399    -0.120166120805     1.007825032230
         H            2.658933756585    -0.503872485601    -2.106166120805     1.007825032230
         H            3.306266756585    -1.104849785601    -0.553796120805     1.007825032230
         H            4.317050756585    -0.084657885601    -1.596426120805     1.007825032230
         C           -1.588066243415    -0.357872485601    -2.588166120805    12.000000000000
         C           -0.735066243415    -0.398872485601    -0.131166120805    12.000000000000
         C           -1.294066243415     0.257127514399    -1.279166120805    12.000000000000
         C           -0.633066243415     0.578127514399     0.893833879195    12.000000000000
         C           -1.492066243415     1.554127514399    -0.927166120805    12.000000000000
         C           -0.297066243415    -1.705872485601     0.136833879195    12.000000000000
         C           -0.126066243415     0.290127514399     2.147833879195    12.000000000000
         C            0.220933756585    -1.992872485601     1.405833879195    12.000000000000
         C            0.298933756585    -1.001872485601     2.395833879195    12.000000000000
         N           -1.097066243415     1.756127514399     0.372833879195    14.003074004430
         H           -0.342066243415    -2.465872485601    -0.628166120805     1.007825032230
         H           -2.377066243415     0.208127514399    -3.087166120805     1.007825032230
         H           -1.971066243415    -1.360872485601    -2.401166120805     1.007825032230
         H           -1.901066243415     2.320127514399    -1.580166120805     1.007825032230
         H           -1.117066243415     2.652127514399     0.847833879195     1.007825032230
         H           -0.067066243415     1.054127514399     2.906833879195     1.007825032230
         H            0.546933756585    -2.993872485601     1.633833879195     1.007825032230
         H            0.703933756585    -1.248872485601     3.366833879195     1.007825032230
         H           -0.709257143415    -0.426416685601    -3.246186120805     1.007825032230

  Running in c1 symmetry.

  Rotational constants: A =      0.02999  B =      0.02698  C =      0.02155 [cm^-1]
  Rotational constants: A =    899.03313  B =    808.77364  C =    646.05204 [MHz]
  Nuclear repulsion =  677.575720757621411

  Charge       = 0
  Multiplicity = 1
  Electrons    = 88
  Nalpha       = 44
  Nbeta        = 44

  ==> Algorithm <==

  SCF Algorithm Type is PK.
  DIIS enabled.
  MOM disabled.
  Fractional occupation disabled.
  Guess Type is SAD.
  Energy threshold   = 1.00e-06
  Density threshold  = 1.00e-10
  Integral threshold = 0.00e+00

  ==> Primary Basis <==

  Basis Set: CC-PVDZ
    Blend: CC-PVDZ
    Number of shells: 117
    Number of basis function: 243
    Number of Cartesian functions: 255
    Spherical Harmonics?: true
    Max angular momentum: 2

  ==> Pre-Iterations <==

   -------------------------------------------------------
    Irrep   Nso     Nmo     Nalpha   Nbeta   Ndocc  Nsocc
   -------------------------------------------------------
     A        243     243       0       0       0       0
   -------------------------------------------------------
    Total     243     243      44      44      44       0
   -------------------------------------------------------

  ==> Integral Setup <==

  Using integral reordering PK algorithm.
  Sizing the integral batches needed.
  Building batch lookup table.
   Calculation information:
      Number of atoms:                  27
      Number of AO shells:             117
      Number of primitives:            339
      Number of atomic orbitals:       255
      Number of basis functions:       243

      Integral cutoff                 1.00e-12
      Number of threads:                 1

	Batch   1 pq = [       0,    9405] index = [             0,44231715] size =     44231715
	Batch   2 pq = [    9405,   13301] index = [      44231715,88464951] size =     44233236
	Batch   3 pq = [   13301,   16290] index = [      88464951,132690195] size =     44225244
	Batch   4 pq = [   16290,   18810] index = [     132690195,176917455] size =     44227260
	Batch   5 pq = [   18810,   21030] index = [     176917455,221140965] size =     44223510
	Batch   6 pq = [   21030,   23037] index = [     221140965,265363203] size =     44222238
	Batch   7 pq = [   23037,   24883] index = [     265363203,309594286] size =     44231083
	Batch   8 pq = [   24883,   26601] index = [     309594286,353819901] size =     44225615
	Batch   9 pq = [   26601,   28214] index = [     353819901,398029005] size =     44209104
	Batch  10 pq = [   28214,   29646] index = [     398029005,439457481] size =     41428476
  Task number: 40
  Buffer size: 11059200
  Buffer per thread: 2
  We computed 26793383 shell quartets total.
  Whereas there are 23829156 unique shell quartets.
    12.44 percent of shell quartets recomputed by reordering.

  ==> DiskJK: Disk-Based J/K Matrices <==

    J tasked:                  Yes
    K tasked:                  Yes
    wK tasked:                  No
    Memory [MiB]:              375
    Schwarz Cutoff:          1E-12

    OpenMP threads:              1

  Minimum eigenvalue in the overlap matrix is 2.3839328743E-04.
  Using Symmetric Orthogonalization.

  SCF Guess: Superposition of Atomic Densities via on-the-fly atomic UHF.

  ==> Iterations <==

                        Total Energy        Delta E     RMS |[F,P]|

   @RHF iter SAD:  -479.11469128261206   -4.79115e+02   0.00000e+00
   @RHF iter   1:  -479.48586802416156   -3.71177e-01   2.62753e-03 DIIS
   @RHF iter   2:  -479.71958604710238   -2.33718e-01   1.18425e-03 DIIS
   @RHF iter   3:  -479.76301938106724   -4.34333e-02   3.08401e-04 DIIS
   @RHF iter   4:  -479.76689301867532   -3.87364e-03   1.42195e-04 DIIS
   @RHF iter   5:  -479.76756767039456   -6.74652e-04   2.01600e-05 DIIS
   @RHF iter   6:  -479.76759672112115   -2.90507e-05   9.16066e-06 DIIS
   @RHF iter   7:  -479.76760263041274   -5.90929e-06   3.81889e-06 DIIS
   @RHF iter   8:  -479.76760429843364   -1.66802e-06   1.53539e-06 DIIS
   @RHF iter   9:  -479.76760464688078   -3.48447e-07   6.69234e-07 DIIS
   @RHF iter  10:  -479.76760471514615   -6.82654e-08   3.03268e-07 DIIS
   @RHF iter  11:  -479.76760473128599   -1.61398e-08   1.16321e-07 DIIS
   @RHF iter  12:  -479.76760473360298   -2.31699e-09   3.70398e-08 DIIS
   @RHF iter  13:  -479.76760473376407   -1.61094e-10   9.69589e-09 DIIS
   @RHF iter  14:  -479.76760473377482   -1.07434e-11   3.66922e-09 DIIS
   @RHF iter  15:  -479.76760473378283   -8.01492e-12   2.14106e-09 DIIS
   @RHF iter  16:  -479.76760473377760    5.22959e-12   9.71995e-10 DIIS
   @RHF iter  17:  -479.76760473377533    2.27374e-12   3.66280e-10 DIIS
   @RHF iter  18:  -479.76760473377675   -1.42109e-12   1.56464e-10 DIIS
   @RHF iter  19:  -479.76760473377999   -3.24007e-12   5.28613e-11 DIIS
  Energy and wave function converged.

  ==> Post-Iterations <==

    Orbital Energies [Eh]
    ---------------------

    Doubly Occupied:

       1A    -15.601696     2A    -11.264169     3A    -11.263616
       4A    -11.233582     5A    -11.230630     6A    -11.229195
       7A    -11.224992     8A    -11.223493     9A    -11.221747
      10A    -11.215893    11A    -11.205081    12A    -11.198385
      13A     -1.296936    14A     -1.129198    15A     -1.077581
      16A     -1.006471    17A     -0.998689    18A     -0.989295
      19A     -0.932731    20A     -0.840781    21A     -0.823215
      22A     -0.805196    23A     -0.753202    24A     -0.721213
      25A     -0.664132    26A     -0.643451    27A     -0.604770
      28A     -0.599955    29A     -0.591945    30A     -0.587817
      31A     -0.579717    32A     -0.569106    33A     -0.553403
      34A     -0.540933    35A     -0.527229    36A     -0.495912
      37A     -0.487217    38A     -0.474179    39A     -0.472416
      40A     -0.470752    41A     -0.459781    42A     -0.373828
      43A     -0.296065    44A     -0.275725

    Virtual:

      45A      0.124185    46A      0.166181    47A      0.174680
      48A      0.179897    49A      0.201486    50A      0.205275
      51A      0.222826    52A      0.228951    53A      0.231623
      54A      0.250602    55A      0.259571    56A      0.265136
      57A      0.273746    58A      0.279279    59A      0.286767
      60A      0.292906    61A      0.325191    62A      0.335908
      63A      0.377162    64A      0.383645    65A      0.411751
      66A      0.412213    67A      0.420271    68A      0.445272
      69A      0.471429    70A      0.479731    71A      0.503299
      72A      0.520871    73A      0.584075    74A      0.591613
      75A      0.602750    76A      0.608292    77A      0.624090
      78A      0.637167    79A      0.641276    80A      0.664856
      81A      0.674811    82A      0.676022    83A      0.699087
      84A      0.718868    85A      0.726728    86A      0.736495
      87A      0.742097    88A      0.758094    89A      0.760846
      90A      0.766620    91A      0.779168    92A      0.780590
      93A      0.798564    94A      0.804549    95A      0.828137
      96A      0.837985    97A      0.862738    98A      0.866195
      99A      0.874675   100A      0.881949   101A      0.886782
     102A      0.897680   103A      0.908025   104A      0.913630
     105A      0.925722   106A      0.927768   107A      0.937118
     108A      0.945525   109A      0.954969   110A      0.961408
     111A      0.966412   112A      0.976388   113A      0.978511
     114A      0.987558   115A      1.015715   116A      1.058380
     117A      1.065558   118A      1.090685   119A      1.096676
     120A      1.127236   121A      1.134165   122A      1.138286
     123A      1.144061   124A      1.158390   125A      1.163868
     126A      1.172928   127A      1.218408   128A      1.226299
     129A      1.231870   130A      1.235351   131A      1.255371
     132A      1.275794   133A      1.290822   134A      1.301061
     135A      1.325996   136A      1.330621   137A      1.358854
     138A      1.368811   139A      1.403713   140A      1.410987
     141A      1.447343   142A      1.482194   143A      1.498877
     144A      1.531093   145A      1.560429   146A      1.574239
     147A      1.592741   148A      1.609339   149A      1.637145
     150A      1.643387   151A      1.650238   152A      1.688852
     153A      1.695697   154A      1.701856   155A      1.734650
     156A      1.740646   157A      1.761495   158A      1.773422
     159A      1.787846   160A      1.809493   161A      1.831491
     162A      1.846525   163A      1.876994   164A      1.881218
     165A      1.889314   166A      1.891816   167A      1.907586
     168A      1.908434   169A      1.912971   170A      1.929405
     171A      1.937198   172A      1.944633   173A      1.949564
     174A      1.966346   175A      1.968557   176A      1.973952
     177A      1.977939   178A      1.990913   179A      1.997998
     180A      2.009572   181A      2.016969   182A      2.030470
     183A      2.056313   184A      2.083840   185A      2.092299
     186A      2.100146   187A      2.102814   188A      2.114427
     189A      2.119947   190A      2.130086   191A      2.149808
     192A      2.155189   193A      2.167764   194A      2.175151
     195A      2.179883   196A      2.222362   197A      2.260170
     198A      2.288384   199A      2.309335   200A      2.315282
     201A      2.324426   202A      2.331708   203A      2.336423
     204A      2.363866   205A      2.404902   206A      2.423209
     207A      2.451669   208A      2.461525   209A      2.476237
     210A      2.487927   211A      2.556690   212A      2.575351
     213A      2.588020   214A      2.604814   215A      2.637551
     216A      2.648076   217A      2.674996   218A      2.685782
     219A      2.708619   220A      2.771161   221A      2.779722
     222A      2.785024   223A      2.789194   224A      2.800565
     225A      2.825973   226A      2.848876   227A      2.866285
     228A      2.872553   229A      2.886235   230A      2.896299
     231A      2.915271   232A      2.965518   233A      2.977582
     234A      3.009692   235A      3.057776   236A      3.069519
     237A      3.092291   238A      3.129029   239A      3.210455
     240A      3.309869   241A      3.385171   242A      3.756705
     243A      3.951685

    Final Occupation by Irrep:
              A
    DOCC [    44 ]

  @RHF Final Energy:  -479.76760473377999

   => Energetics <=

    Nuclear Repulsion Energy =            677.5757207576214114
    One-Electron Energy =               -1993.1760106615365657
    Two-Electron Energy =                 835.8326851701351643
    Total Energy =                       -479.7676047337799901

Computation Completed

Properties will be evaluated at   0.000000,   0.000000,   0.000000 [a0]

Properties computed using the SCF density matrix

  Nuclear Dipole Moment: [e a0]
     X:    10.1600      Y:    -0.0795      Z:    -7.2481

  Electronic Dipole Moment: [e a0]
     X:   -10.4512      Y:     0.8434      Z:     7.2646

  Dipole Moment: [e a0]
     X:    -0.2912      Y:     0.7638      Z:     0.0165     Total:     0.8176

  Dipole Moment: [D]
     X:    -0.7402      Y:     1.9415      Z:     0.0418     Total:     2.0782

*** tstop() called on ds3 at Mon Apr 27 20:50:35 2020
Module time:
	user time   =     210.83 seconds =       3.51 minutes
	system time =      74.26 seconds =       1.24 minutes
	total time  =        329 seconds =       5.48 minutes
Total time:
	user time   =     210.83 seconds =       3.51 minutes
	system time =      74.26 seconds =       1.24 minutes
	total time  =        329 seconds =       5.48 minutes
                                     G D M A

                                 by Anthony Stone

                           version 2.2.06, 22 June 2011

               Distributed Multipoles from Gaussian wavefunctions

Starting at 20:50:35 on 27 Apr 2020

Using SCF density matrix from file ./SSI/SSI-041ALA-047TRP-1-dimer.test.17672.fchk

                         Distributed Multipole Analysis

Standard DMA

Positions and radii in angstrom
Multipole moments in atomic units, ea_0^k for rank k

C          x =  2.729934  y =  0.992128  z = -0.586166 angstrom
           Maximum rank =  0   Radius =  0.650 angstrom
                   Q00  =  -0.232210

C          x =  3.285934  y = -0.256872  z = -1.254166 angstrom
           Maximum rank =  0   Radius =  0.650 angstrom
                   Q00  =  -0.234375

H          x =  3.426934  y =  1.348128  z =  0.170834 angstrom
           Maximum rank =  0   Radius =  0.325 angstrom
                   Q00  =   0.069050

H          x =  2.580934  y =  1.758128  z = -1.337166 angstrom
           Maximum rank =  0   Radius =  0.325 angstrom
                   Q00  =   0.068702

H          x =  1.777934  y =  0.769128  z = -0.120166 angstrom
           Maximum rank =  0   Radius =  0.325 angstrom
                   Q00  =   0.094796

H          x =  2.658934  y = -0.503872  z = -2.106166 angstrom
           Maximum rank =  0   Radius =  0.325 angstrom
                   Q00  =   0.075247

H          x =  3.306267  y = -1.104850  z = -0.553796 angstrom
           Maximum rank =  0   Radius =  0.325 angstrom
                   Q00  =   0.080424

H          x =  4.317051  y = -0.084658  z = -1.596426 angstrom
           Maximum rank =  0   Radius =  0.325 angstrom
                   Q00  =   0.067981

C          x = -1.588066  y = -0.357872  z = -2.588166 angstrom
           Maximum rank =  0   Radius =  0.650 angstrom
                   Q00  =  -0.207621

C          x = -0.735066  y = -0.398872  z = -0.131166 angstrom
           Maximum rank =  0   Radius =  0.650 angstrom
                   Q00  =  -0.045373

C          x = -1.294066  y =  0.257128  z = -1.279166 angstrom
           Maximum rank =  0   Radius =  0.650 angstrom
                   Q00  =  -0.118060

C          x = -0.633066  y =  0.578128  z =  0.893834 angstrom
           Maximum rank =  0   Radius =  0.650 angstrom
                   Q00  =   0.267245

C          x = -1.492066  y =  1.554128  z = -0.927166 angstrom
           Maximum rank =  0   Radius =  0.650 angstrom
                   Q00  =   0.071804

C          x = -0.297066  y = -1.705872  z =  0.136834 angstrom
           Maximum rank =  0   Radius =  0.650 angstrom
                   Q00  =  -0.102215

C          x = -0.126066  y =  0.290128  z =  2.147834 angstrom
           Maximum rank =  0   Radius =  0.650 angstrom
                   Q00  =  -0.114769

C          x =  0.220934  y = -1.992872  z =  1.405834 angstrom
           Maximum rank =  0   Radius =  0.650 angstrom
                   Q00  =  -0.108854

C          x =  0.298934  y = -1.001872  z =  2.395834 angstrom
           Maximum rank =  0   Radius =  0.650 angstrom
                   Q00  =  -0.029878

N          x = -1.097066  y =  1.756128  z =  0.372834 angstrom
           Maximum rank =  0   Radius =  0.650 angstrom
                   Q00  =  -0.493119

H          x = -0.342066  y = -2.465872  z = -0.628166 angstrom
           Maximum rank =  0   Radius =  0.325 angstrom
                   Q00  =   0.073124

H          x = -2.377066  y =  0.208128  z = -3.087166 angstrom
           Maximum rank =  0   Radius =  0.325 angstrom
                   Q00  =   0.103103

H          x = -1.971066  y = -1.360872  z = -2.401166 angstrom
           Maximum rank =  0   Radius =  0.325 angstrom
                   Q00  =   0.099674

H          x = -1.901066  y =  2.320128  z = -1.580166 angstrom
           Maximum rank =  0   Radius =  0.325 angstrom
                   Q00  =   0.100425

H          x = -1.117066  y =  2.652128  z =  0.847834 angstrom
           Maximum rank =  0   Radius =  0.325 angstrom
                   Q00  =   0.218873

H          x = -0.067066  y =  1.054128  z =  2.906834 angstrom
           Maximum rank =  0   Radius =  0.325 angstrom
                   Q00  =   0.071773

H          x =  0.546934  y = -2.993872  z =  1.633834 angstrom
           Maximum rank =  0   Radius =  0.325 angstrom
                   Q00  =   0.062258

H          x =  0.703934  y = -1.248872  z =  3.366834 angstrom
           Maximum rank =  0   Radius =  0.325 angstrom
                   Q00  =   0.064672

H          x = -0.709257  y = -0.426417  z = -3.246186 angstrom
           Maximum rank =  0   Radius =  0.325 angstrom
                   Q00  =   0.097321

Total multipoles referred to origin at
           x =   0.000000,  y =    0.000000,  z =    0.000000 angstrom
                   Q00  =  -0.000000

Finished at 20:50:35 on 27 Apr 2020

  DMA results are available in the Python driver through the
	  variable('DMA DISTRIBUTED MULTIPOLES')
  and
	  variable('DMA TOTAL MULTIPOLES')
  commands.

    Psi4 stopped on: Monday, 27 April 2020 08:50PM
    Psi4 wall time for execution: 0:05:29.39

*** Psi4 exiting successfully. Buy a developer a beer!
