                               Psi4 1.3.2 release

  ==> Input File <==

--------------------------------------------------------------------------
import numpy as np
set {scf_type pk
basis cc-pvdz
d_convergence 10
gdma_switch   0
gdma_limit    0
gdma_origin   [ 0.0,  0.0,  0.0 ]
}
molecule test {
    units Angstrom
    1 1
    --
    1 1
    C               -1.069174505703269    -2.203371250700026    -0.632245569362588
    C                1.135825494296731    -2.019371250700026     0.438754430637412
    N                0.383825494296731    -2.190371250700026    -0.630245569362588
    N                0.630825494296732    -1.860371250700026     1.658754430637412
    N                2.437825494296731    -2.011371250700026     0.227754430637412
    H                0.853825494296732    -2.597371250700026    -1.418245569362589
    H               -0.364174505703269    -1.918371250700026     1.800754430637411
    H                1.239825494296731    -1.715371250700026     2.450754430637412
    H                2.855825494296732    -2.436371250700026    -0.584245569362588
    H                3.044825494296732    -1.839371250700026     1.018754430637412
    H               -1.461174505703269    -1.308371250700026    -0.144245569362588
    H               -1.463174505703268    -3.095371250700026    -0.138245569362588
    H               -1.355624505703269    -2.183489250700026    -1.694105569362589
    C                0.254825494296731     1.539628749299974    -0.342245569362588
    C                0.837825494296732     1.947628749299974    -1.661245569362588
    C               -1.687174505703269     1.941628749299974     1.415754430637411
    S               -1.376174505703269     2.295628749299974    -0.281245569362588
    H                0.164825494296732     0.457628749299974    -0.282245569362588
    H                0.874825494296732     1.910628749299974     0.472754430637412
    H                0.840825494296731     3.036628749299974    -1.732245569362588
    H                0.170825494296732     1.572628749299974    -2.441245569362589
    H               -0.876174505703268     2.303628749299974     2.042754430637411
    H               -2.618174505703269     2.422628749299974     1.720754430637411
    H               -1.786174505703269     0.863628749299974     1.552754430637411
    H                1.851965494296731     1.568332749299974    -1.855285569362588

}
e, wfn = energy('scf', return_wfn=True)
gdma(wfn)
dmavals = variable('DMA DISTRIBUTED MULTIPOLES')
charges = np.array(dmavals)
print(charges)
np.save('SSI-048ARG-060MET-1-dimer.npy', np.array(charges))--------------------------------------------------------------------------

*** tstart() called on ds3
*** at Tue Apr 28 16:58:54 2020

   => Loading Basis Set <=

    Name: CC-PVDZ
    Role: ORBITAL
    Keyword: BASIS
    atoms 1-2, 14-16  entry C          line   138 file /theoryfs2/ds/metcalf/miniconda2/envs/tf2gpu/share/psi4/basis/cc-pvdz.gbs
    atoms 3-5         entry N          line   168 file /theoryfs2/ds/metcalf/miniconda2/envs/tf2gpu/share/psi4/basis/cc-pvdz.gbs
    atoms 6-13, 18-25 entry H          line    22 file /theoryfs2/ds/metcalf/miniconda2/envs/tf2gpu/share/psi4/basis/cc-pvdz.gbs
    atoms 17          entry S          line   598 file /theoryfs2/ds/metcalf/miniconda2/envs/tf2gpu/share/psi4/basis/cc-pvdz.gbs

         ---------------------------------------------------------
                                   SCF
               by Justin Turney, Rob Parrish, Andy Simmonett
                          and Daniel G. A. Smith
                              RHF Reference
                        1 Threads,    500 MiB Core
         ---------------------------------------------------------

  ==> Geometry <==

    Molecular point group: c1
    Full point group: C1

    Geometry (in Angstrom), charge = 1, multiplicity = 1:

       Center              X                  Y                   Z               Mass
    ------------   -----------------  -----------------  -----------------  -----------------
         C           -1.069174505703    -2.203371250700    -0.632245569363    12.000000000000
         C            1.135825494297    -2.019371250700     0.438754430637    12.000000000000
         N            0.383825494297    -2.190371250700    -0.630245569363    14.003074004430
         N            0.630825494297    -1.860371250700     1.658754430637    14.003074004430
         N            2.437825494297    -2.011371250700     0.227754430637    14.003074004430
         H            0.853825494297    -2.597371250700    -1.418245569363     1.007825032230
         H           -0.364174505703    -1.918371250700     1.800754430637     1.007825032230
         H            1.239825494297    -1.715371250700     2.450754430637     1.007825032230
         H            2.855825494297    -2.436371250700    -0.584245569363     1.007825032230
         H            3.044825494297    -1.839371250700     1.018754430637     1.007825032230
         H           -1.461174505703    -1.308371250700    -0.144245569363     1.007825032230
         H           -1.463174505703    -3.095371250700    -0.138245569363     1.007825032230
         H           -1.355624505703    -2.183489250700    -1.694105569363     1.007825032230
         C            0.254825494297     1.539628749300    -0.342245569363    12.000000000000
         C            0.837825494297     1.947628749300    -1.661245569363    12.000000000000
         C           -1.687174505703     1.941628749300     1.415754430637    12.000000000000
         S           -1.376174505703     2.295628749300    -0.281245569363    31.972071174400
         H            0.164825494297     0.457628749300    -0.282245569363     1.007825032230
         H            0.874825494297     1.910628749300     0.472754430637     1.007825032230
         H            0.840825494297     3.036628749300    -1.732245569363     1.007825032230
         H            0.170825494297     1.572628749300    -2.441245569363     1.007825032230
         H           -0.876174505703     2.303628749300     2.042754430637     1.007825032230
         H           -2.618174505703     2.422628749300     1.720754430637     1.007825032230
         H           -1.786174505703     0.863628749300     1.552754430637     1.007825032230
         H            1.851965494297     1.568332749300    -1.855285569363     1.007825032230

  Running in c1 symmetry.

  Rotational constants: A =      0.05444  B =      0.01950  C =      0.01807 [cm^-1]
  Rotational constants: A =   1632.14165  B =    584.54464  C =    541.75444 [MHz]
  Nuclear repulsion =  561.409270243027663

  Charge       = 1
  Multiplicity = 1
  Electrons    = 82
  Nalpha       = 41
  Nbeta        = 41

  ==> Algorithm <==

  SCF Algorithm Type is PK.
  DIIS enabled.
  MOM disabled.
  Fractional occupation disabled.
  Guess Type is SAD.
  Energy threshold   = 1.00e-06
  Density threshold  = 1.00e-10
  Integral threshold = 0.00e+00

  ==> Primary Basis <==

  Basis Set: CC-PVDZ
    Blend: CC-PVDZ
    Number of shells: 104
    Number of basis function: 210
    Number of Cartesian functions: 219
    Spherical Harmonics?: true
    Max angular momentum: 2

  ==> Pre-Iterations <==

   -------------------------------------------------------
    Irrep   Nso     Nmo     Nalpha   Nbeta   Ndocc  Nsocc
   -------------------------------------------------------
     A        210     210       0       0       0       0
   -------------------------------------------------------
    Total     210     210      41      41      41       0
   -------------------------------------------------------

  ==> Integral Setup <==

  Using integral reordering PK algorithm.
  Sizing the integral batches needed.
  Building batch lookup table.
   Calculation information:
      Number of atoms:                  25
      Number of AO shells:             104
      Number of primitives:            306
      Number of atomic orbitals:       219
      Number of basis functions:       210

      Integral cutoff                 1.00e-12
      Number of threads:                 1

	Batch   1 pq = [       0,    9405] index = [             0,44231715] size =     44231715
	Batch   2 pq = [    9405,   13301] index = [      44231715,88464951] size =     44233236
	Batch   3 pq = [   13301,   16290] index = [      88464951,132690195] size =     44225244
	Batch   4 pq = [   16290,   18810] index = [     132690195,176917455] size =     44227260
	Batch   5 pq = [   18810,   21030] index = [     176917455,221140965] size =     44223510
	Batch   6 pq = [   21030,   22155] index = [     221140965,245433090] size =     24292125
  Task number: 23
  Buffer size: 11059200
  Buffer per thread: 2
  We computed 13658193 shell quartets total.
  Whereas there are 14908530 unique shell quartets.

  ==> DiskJK: Disk-Based J/K Matrices <==

    J tasked:                  Yes
    K tasked:                  Yes
    wK tasked:                  No
    Memory [MiB]:              375
    Schwarz Cutoff:          1E-12

    OpenMP threads:              1

  Minimum eigenvalue in the overlap matrix is 3.3212822698E-03.
  Using Symmetric Orthogonalization.

  SCF Guess: Superposition of Atomic Densities via on-the-fly atomic UHF.

  ==> Iterations <==

                        Total Energy        Delta E     RMS |[F,P]|

   @RHF iter SAD:  -758.86982996742699   -7.58870e+02   0.00000e+00
   @RHF iter   1:  -759.14363491720621   -2.73805e-01   2.82819e-03 DIIS
   @RHF iter   2:  -759.33761440957812   -1.93979e-01   1.06768e-03 DIIS
   @RHF iter   3:  -759.36307865651884   -2.54642e-02   2.86474e-04 DIIS
   @RHF iter   4:  -759.36597654861657   -2.89789e-03   5.32126e-05 DIIS
   @RHF iter   5:  -759.36607678089501   -1.00232e-04   1.82455e-05 DIIS
   @RHF iter   6:  -759.36608924368625   -1.24628e-05   4.27124e-06 DIIS
   @RHF iter   7:  -759.36609012884935   -8.85163e-07   1.41073e-06 DIIS
   @RHF iter   8:  -759.36609022155449   -9.27051e-08   4.23096e-07 DIIS
   @RHF iter   9:  -759.36609022886364   -7.30915e-09   9.14769e-08 DIIS
   @RHF iter  10:  -759.36609022928599   -4.22347e-10   2.60880e-08 DIIS
   @RHF iter  11:  -759.36609022931839   -3.24007e-11   8.00597e-09 DIIS
   @RHF iter  12:  -759.36609022932089   -2.50111e-12   2.81908e-09 DIIS
   @RHF iter  13:  -759.36609022932055    3.41061e-13   8.71729e-10 DIIS
   @RHF iter  14:  -759.36609022932021    3.41061e-13   3.20281e-10 DIIS
   @RHF iter  15:  -759.36609022931998    2.27374e-13   7.59757e-11 DIIS
  Energy and wave function converged.

  ==> Post-Iterations <==

    Orbital Energies [Eh]
    ---------------------

    Doubly Occupied:

       1A    -92.030751     2A    -15.798958     3A    -15.789356
       4A    -15.786539     5A    -11.594190     6A    -11.439478
       7A    -11.358680     8A    -11.349255     9A    -11.323426
      10A     -9.036089    11A     -6.718037    12A     -6.716403
      13A     -6.714085    14A     -1.551768    15A     -1.409195
      16A     -1.397284    17A     -1.195070    18A     -1.145346
      19A     -1.104954    20A     -1.043708    21A     -0.980902
      22A     -0.969578    23A     -0.939201    24A     -0.896600
      25A     -0.873615    26A     -0.866045    27A     -0.826078
      28A     -0.790238    29A     -0.747034    30A     -0.739749
      31A     -0.722185    32A     -0.702165    33A     -0.687923
      34A     -0.679357    35A     -0.625618    36A     -0.619267
      37A     -0.601296    38A     -0.588603    39A     -0.570863
      40A     -0.531840    41A     -0.431255

    Virtual:

      42A     -0.019481    43A      0.007221    44A      0.019335
      45A      0.028406    46A      0.055634    47A      0.072440
      48A      0.084959    49A      0.092157    50A      0.112367
      51A      0.120696    52A      0.127363    53A      0.144430
      54A      0.154049    55A      0.160771    56A      0.164663
      57A      0.179258    58A      0.191917    59A      0.203025
      60A      0.211738    61A      0.246694    62A      0.287698
      63A      0.297983    64A      0.316943    65A      0.340367
      66A      0.437311    67A      0.448586    68A      0.462565
      69A      0.471660    70A      0.481282    71A      0.490766
      72A      0.515619    73A      0.524606    74A      0.531186
      75A      0.542953    76A      0.550863    77A      0.561947
      78A      0.566389    79A      0.591069    80A      0.614613
      81A      0.634710    82A      0.650022    83A      0.677022
      84A      0.686454    85A      0.705466    86A      0.707574
      87A      0.718667    88A      0.724311    89A      0.737869
      90A      0.750125    91A      0.759716    92A      0.769119
      93A      0.774228    94A      0.780657    95A      0.791983
      96A      0.800186    97A      0.806874    98A      0.816436
      99A      0.821661   100A      0.836500   101A      0.841123
     102A      0.846355   103A      0.867028   104A      0.868967
     105A      0.890958   106A      0.899797   107A      0.909721
     108A      0.927530   109A      0.934263   110A      0.967346
     111A      1.010874   112A      1.041854   113A      1.072506
     114A      1.119998   115A      1.123330   116A      1.145901
     117A      1.161524   118A      1.193002   119A      1.203748
     120A      1.216093   121A      1.235189   122A      1.249329
     123A      1.258335   124A      1.272991   125A      1.294438
     126A      1.369137   127A      1.378194   128A      1.420437
     129A      1.431134   130A      1.468626   131A      1.489921
     132A      1.513286   133A      1.529464   134A      1.555775
     135A      1.572082   136A      1.584939   137A      1.589365
     138A      1.602411   139A      1.624393   140A      1.654840
     141A      1.681612   142A      1.708628   143A      1.719642
     144A      1.734659   145A      1.745472   146A      1.763965
     147A      1.777748   148A      1.786806   149A      1.799492
     150A      1.805608   151A      1.822727   152A      1.831383
     153A      1.842078   154A      1.845419   155A      1.849138
     156A      1.867343   157A      1.884657   158A      1.894615
     159A      1.901163   160A      1.915102   161A      1.932400
     162A      1.956055   163A      1.979248   164A      1.990607
     165A      2.018365   166A      2.045247   167A      2.067888
     168A      2.098150   169A      2.112637   170A      2.149178
     171A      2.172367   172A      2.189452   173A      2.208703
     174A      2.234052   175A      2.248286   176A      2.259340
     177A      2.276998   178A      2.322635   179A      2.331325
     180A      2.340333   181A      2.365499   182A      2.383681
     183A      2.402100   184A      2.436156   185A      2.452674
     186A      2.467039   187A      2.476437   188A      2.540316
     189A      2.591560   190A      2.597471   191A      2.630491
     192A      2.666093   193A      2.669069   194A      2.688494
     195A      2.696040   196A      2.723464   197A      2.734338
     198A      2.738783   199A      2.760915   200A      2.802675
     201A      2.814830   202A      2.832203   203A      2.873084
     204A      2.905384   205A      2.929280   206A      3.058400
     207A      3.097663   208A      3.127913   209A      3.562177
     210A      3.599553

    Final Occupation by Irrep:
              A
    DOCC [    41 ]

  @RHF Final Energy:  -759.36609022931998

   => Energetics <=

    Nuclear Repulsion Energy =            561.4092702430276631
    One-Electron Energy =               -2141.7667525305655545
    Two-Electron Energy =                 820.9913920582180253
    Total Energy =                       -759.3660902293199797

Computation Completed

Properties will be evaluated at   0.000000,   0.000000,   0.000000 [a0]

Properties computed using the SCF density matrix

  Nuclear Dipole Moment: [e a0]
     X:     1.8032      Y:    -2.6952      Z:     0.7100

  Electronic Dipole Moment: [e a0]
     X:     0.3142      Y:    -1.4250      Z:     0.4276

  Dipole Moment: [e a0]
     X:     2.1173      Y:    -4.1202      Z:     1.1376     Total:     4.7700

  Dipole Moment: [D]
     X:     5.3818      Y:   -10.4725      Z:     2.8915     Total:    12.1242

*** tstop() called on ds3 at Tue Apr 28 17:03:17 2020
Module time:
	user time   =      99.91 seconds =       1.67 minutes
	system time =      30.45 seconds =       0.51 minutes
	total time  =        263 seconds =       4.38 minutes
Total time:
	user time   =      99.91 seconds =       1.67 minutes
	system time =      30.45 seconds =       0.51 minutes
	total time  =        263 seconds =       4.38 minutes
                                     G D M A

                                 by Anthony Stone

                           version 2.2.06, 22 June 2011

               Distributed Multipoles from Gaussian wavefunctions

Starting at 17:3:17 on 28 Apr 2020

Using SCF density matrix from file ./SSI/SSI-048ARG-060MET-1-dimer.test.23109.fchk

                         Distributed Multipole Analysis

Standard DMA

Positions and radii in angstrom
Multipole moments in atomic units, ea_0^k for rank k

C          x = -1.069175  y = -2.203371  z = -0.632246 angstrom
           Maximum rank =  0   Radius =  0.650 angstrom
                   Q00  =  -0.129922

C          x =  1.135825  y = -2.019371  z =  0.438754 angstrom
           Maximum rank =  0   Radius =  0.650 angstrom
                   Q00  =   1.074006

N          x =  0.383825  y = -2.190371  z = -0.630246 angstrom
           Maximum rank =  0   Radius =  0.650 angstrom
                   Q00  =  -0.462026

N          x =  0.630825  y = -1.860371  z =  1.658754 angstrom
           Maximum rank =  0   Radius =  0.650 angstrom
                   Q00  =  -0.588440

N          x =  2.437825  y = -2.011371  z =  0.227754 angstrom
           Maximum rank =  0   Radius =  0.650 angstrom
                   Q00  =  -0.585052

H          x =  0.853825  y = -2.597371  z = -1.418246 angstrom
           Maximum rank =  0   Radius =  0.325 angstrom
                   Q00  =   0.227266

H          x = -0.364175  y = -1.918371  z =  1.800754 angstrom
           Maximum rank =  0   Radius =  0.325 angstrom
                   Q00  =   0.276899

H          x =  1.239825  y = -1.715371  z =  2.450754 angstrom
           Maximum rank =  0   Radius =  0.325 angstrom
                   Q00  =   0.273572

H          x =  2.855825  y = -2.436371  z = -0.584246 angstrom
           Maximum rank =  0   Radius =  0.325 angstrom
                   Q00  =   0.270135

H          x =  3.044825  y = -1.839371  z =  1.018754 angstrom
           Maximum rank =  0   Radius =  0.325 angstrom
                   Q00  =   0.249970

H          x = -1.461175  y = -1.308371  z = -0.144246 angstrom
           Maximum rank =  0   Radius =  0.325 angstrom
                   Q00  =   0.124250

H          x = -1.463175  y = -3.095371  z = -0.138246 angstrom
           Maximum rank =  0   Radius =  0.325 angstrom
                   Q00  =   0.114525

H          x = -1.355625  y = -2.183489  z = -1.694106 angstrom
           Maximum rank =  0   Radius =  0.325 angstrom
                   Q00  =   0.166738

C          x =  0.254825  y =  1.539629  z = -0.342246 angstrom
           Maximum rank =  0   Radius =  0.650 angstrom
                   Q00  =  -0.232153

C          x =  0.837825  y =  1.947629  z = -1.661246 angstrom
           Maximum rank =  0   Radius =  0.650 angstrom
                   Q00  =  -0.204035

C          x = -1.687175  y =  1.941629  z =  1.415754 angstrom
           Maximum rank =  0   Radius =  0.650 angstrom
                   Q00  =  -0.343300

S          x = -1.376175  y =  2.295629  z = -0.281246 angstrom
           Maximum rank =  0   Radius =  0.650 angstrom
                   Q00  =   0.164568

H          x =  0.164825  y =  0.457629  z = -0.282246 angstrom
           Maximum rank =  0   Radius =  0.325 angstrom
                   Q00  =  -0.001974

H          x =  0.874825  y =  1.910629  z =  0.472754 angstrom
           Maximum rank =  0   Radius =  0.325 angstrom
                   Q00  =   0.064661

H          x =  0.840825  y =  3.036629  z = -1.732246 angstrom
           Maximum rank =  0   Radius =  0.325 angstrom
                   Q00  =   0.111630

H          x =  0.170825  y =  1.572629  z = -2.441246 angstrom
           Maximum rank =  0   Radius =  0.325 angstrom
                   Q00  =   0.081347

H          x = -0.876175  y =  2.303629  z =  2.042754 angstrom
           Maximum rank =  0   Radius =  0.325 angstrom
                   Q00  =   0.088260

H          x = -2.618175  y =  2.422629  z =  1.720754 angstrom
           Maximum rank =  0   Radius =  0.325 angstrom
                   Q00  =   0.135210

H          x = -1.786175  y =  0.863629  z =  1.552754 angstrom
           Maximum rank =  0   Radius =  0.325 angstrom
                   Q00  =   0.038858

H          x =  1.851965  y =  1.568333  z = -1.855286 angstrom
           Maximum rank =  0   Radius =  0.325 angstrom
                   Q00  =   0.085008

Total multipoles referred to origin at
           x =   0.000000,  y =    0.000000,  z =    0.000000 angstrom
                   Q00  =   1.000000

Finished at 17:3:17 on 28 Apr 2020

  DMA results are available in the Python driver through the
	  variable('DMA DISTRIBUTED MULTIPOLES')
  and
	  variable('DMA TOTAL MULTIPOLES')
  commands.

    Psi4 stopped on: Tuesday, 28 April 2020 05:03PM
    Psi4 wall time for execution: 0:04:23.31

*** Psi4 exiting successfully. Buy a developer a beer!
