                               Psi4 1.3.2 release

  ==> Input File <==

--------------------------------------------------------------------------
import numpy as np
set {scf_type pk
basis cc-pvdz
d_convergence 10
gdma_switch   0
gdma_limit    0
gdma_origin   [ 0.0,  0.0,  0.0 ]
}
molecule test {
    units Angstrom
    0 1
    --
    0 1
    C                1.551253583366464    -0.969067762973711     1.388408591041301
    C                2.615253583366464    -1.997067762973711     1.717408591041301
    H                0.865253583366464    -0.828067762973711     2.215408591041301
    H                2.031253583366464    -0.015067762973711     1.167408591041301
    H                0.994253583366464    -1.286067762973711     0.506408591041301
    H                3.352253583366464    -1.989067762973711     0.913408591041301
    H                2.188593583366464    -3.007667762973711     1.798955591041301
    H                3.124703583366464    -1.734577762973711     2.656321591041301
    C               -0.898746416633536     0.898932237026289    -0.856591408958699
    C               -1.848746416633536    -0.145067762973711    -1.492591408958699
    C               -1.481746416633536     2.270932237026289    -0.813591408958699
    H               -0.706746416633536     0.560932237026289     0.163408591041301
    H                0.046253583366464     0.920932237026289    -1.402591408958699
    H               -2.769746416633536    -0.157067762973711    -0.912591408958699
    H               -1.535746416633536     2.684932237026289    -1.821591408958699
    H               -2.490746416633536     2.218932237026289    -0.404591408958699
    H               -1.369956416633536    -1.135337762973711    -1.481191408958699
    H               -2.084946416633536     0.110022237026289    -2.536210408958699
    H               -0.897736416633536     2.958702237026289    -0.184374908958699

}
e, wfn = energy('scf', return_wfn=True)
gdma(wfn)
dmavals = variable('DMA DISTRIBUTED MULTIPOLES')
charges = np.array(dmavals)
print(charges)
np.save('SSI-040THR-162GLN-1-dimer.npy', np.array(charges))--------------------------------------------------------------------------

*** tstart() called on ds3
*** at Mon Apr 27 06:41:07 2020

   => Loading Basis Set <=

    Name: CC-PVDZ
    Role: ORBITAL
    Keyword: BASIS
    atoms 1-2, 9-11  entry C          line   138 file /theoryfs2/ds/metcalf/miniconda2/envs/tf2gpu/share/psi4/basis/cc-pvdz.gbs
    atoms 3-8, 12-19 entry H          line    22 file /theoryfs2/ds/metcalf/miniconda2/envs/tf2gpu/share/psi4/basis/cc-pvdz.gbs

         ---------------------------------------------------------
                                   SCF
               by Justin Turney, Rob Parrish, Andy Simmonett
                          and Daniel G. A. Smith
                              RHF Reference
                        1 Threads,    500 MiB Core
         ---------------------------------------------------------

  ==> Geometry <==

    Molecular point group: c1
    Full point group: C1

    Geometry (in Angstrom), charge = 0, multiplicity = 1:

       Center              X                  Y                   Z               Mass
    ------------   -----------------  -----------------  -----------------  -----------------
         C            1.551253583366    -0.969067762974     1.388408591041    12.000000000000
         C            2.615253583366    -1.997067762974     1.717408591041    12.000000000000
         H            0.865253583366    -0.828067762974     2.215408591041     1.007825032230
         H            2.031253583366    -0.015067762974     1.167408591041     1.007825032230
         H            0.994253583366    -1.286067762974     0.506408591041     1.007825032230
         H            3.352253583366    -1.989067762974     0.913408591041     1.007825032230
         H            2.188593583366    -3.007667762974     1.798955591041     1.007825032230
         H            3.124703583366    -1.734577762974     2.656321591041     1.007825032230
         C           -0.898746416634     0.898932237026    -0.856591408959    12.000000000000
         C           -1.848746416634    -0.145067762974    -1.492591408959    12.000000000000
         C           -1.481746416634     2.270932237026    -0.813591408959    12.000000000000
         H           -0.706746416634     0.560932237026     0.163408591041     1.007825032230
         H            0.046253583366     0.920932237026    -1.402591408959     1.007825032230
         H           -2.769746416634    -0.157067762974    -0.912591408959     1.007825032230
         H           -1.535746416634     2.684932237026    -1.821591408959     1.007825032230
         H           -2.490746416634     2.218932237026    -0.404591408959     1.007825032230
         H           -1.369956416634    -1.135337762974    -1.481191408959     1.007825032230
         H           -2.084946416634     0.110022237026    -2.536210408959     1.007825032230
         H           -0.897736416634     2.958702237026    -0.184374908959     1.007825032230

  Running in c1 symmetry.

  Rotational constants: A =      0.25568  B =      0.03405  C =      0.03108 [cm^-1]
  Rotational constants: A =   7665.18234  B =   1020.68640  C =    931.65269 [MHz]
  Nuclear repulsion =  174.876456881145231

  Charge       = 0
  Multiplicity = 1
  Electrons    = 44
  Nalpha       = 22
  Nbeta        = 22

  ==> Algorithm <==

  SCF Algorithm Type is PK.
  DIIS enabled.
  MOM disabled.
  Fractional occupation disabled.
  Guess Type is SAD.
  Energy threshold   = 1.00e-06
  Density threshold  = 1.00e-10
  Integral threshold = 0.00e+00

  ==> Primary Basis <==

  Basis Set: CC-PVDZ
    Blend: CC-PVDZ
    Number of shells: 72
    Number of basis function: 140
    Number of Cartesian functions: 145
    Spherical Harmonics?: true
    Max angular momentum: 2

  ==> Pre-Iterations <==

   -------------------------------------------------------
    Irrep   Nso     Nmo     Nalpha   Nbeta   Ndocc  Nsocc
   -------------------------------------------------------
     A        140     140       0       0       0       0
   -------------------------------------------------------
    Total     140     140      22      22      22       0
   -------------------------------------------------------

  ==> Integral Setup <==

  Using integral reordering PK algorithm.
  Sizing the integral batches needed.
  Building batch lookup table.
   Calculation information:
      Number of atoms:                  19
      Number of AO shells:              72
      Number of primitives:            180
      Number of atomic orbitals:       145
      Number of basis functions:       140

      Integral cutoff                 1.00e-12
      Number of threads:                 1

	Batch   1 pq = [       0,    9405] index = [             0,44231715] size =     44231715
	Batch   2 pq = [    9405,    9870] index = [      44231715,48713385] size =      4481670
  Task number: 5
  Buffer size: 11059200
  Buffer per thread: 2
  We computed 2698901 shell quartets total.
  Whereas there are 3454506 unique shell quartets.

  ==> DiskJK: Disk-Based J/K Matrices <==

    J tasked:                  Yes
    K tasked:                  Yes
    wK tasked:                  No
    Memory [MiB]:              375
    Schwarz Cutoff:          1E-12

    OpenMP threads:              1

  Minimum eigenvalue in the overlap matrix is 5.0987950665E-03.
  Using Symmetric Orthogonalization.

  SCF Guess: Superposition of Atomic Densities via on-the-fly atomic UHF.

  ==> Iterations <==

                        Total Energy        Delta E     RMS |[F,P]|

   @RHF iter SAD:  -196.40439954826061   -1.96404e+02   0.00000e+00
   @RHF iter   1:  -197.30871978692213   -9.04320e-01   3.84312e-03 DIIS
   @RHF iter   2:  -197.47099779701145   -1.62278e-01   1.67177e-03 DIIS
   @RHF iter   3:  -197.50039569267602   -2.93979e-02   3.28446e-04 DIIS
   @RHF iter   4:  -197.50265771055169   -2.26202e-03   4.98115e-05 DIIS
   @RHF iter   5:  -197.50269838002612   -4.06695e-05   1.50767e-05 DIIS
   @RHF iter   6:  -197.50270190523105   -3.52520e-06   2.56230e-06 DIIS
   @RHF iter   7:  -197.50270202427578   -1.19045e-07   5.04417e-07 DIIS
   @RHF iter   8:  -197.50270202971461   -5.43884e-09   1.36558e-07 DIIS
   @RHF iter   9:  -197.50270203009507   -3.80453e-10   4.26988e-08 DIIS
   @RHF iter  10:  -197.50270203013821   -4.31442e-11   8.66905e-09 DIIS
   @RHF iter  11:  -197.50270203014011   -1.90425e-12   1.58657e-09 DIIS
   @RHF iter  12:  -197.50270203014057   -4.54747e-13   2.98252e-10 DIIS
   @RHF iter  13:  -197.50270203013986    7.10543e-13   7.02809e-11 DIIS
  Energy and wave function converged.

  ==> Post-Iterations <==

    Orbital Energies [Eh]
    ---------------------

    Doubly Occupied:

       1A    -11.218266     2A    -11.218262     3A    -11.217005
       4A    -11.215205     5A    -11.212971     6A     -1.056398
       7A     -1.021539     8A     -0.923949     9A     -0.836377
      10A     -0.794344    11A     -0.628524    12A     -0.600643
      13A     -0.599069    14A     -0.594760    15A     -0.546988
      16A     -0.531480    17A     -0.504567    18A     -0.485264
      19A     -0.484109    20A     -0.478652    21A     -0.466834
      22A     -0.459736

    Virtual:

      23A      0.172178    24A      0.192992    25A      0.215509
      26A      0.220507    27A      0.229565    28A      0.249487
      29A      0.255168    30A      0.267587    31A      0.276479
      32A      0.284595    33A      0.287976    34A      0.305769
      35A      0.309532    36A      0.331437    37A      0.377104
      38A      0.412597    39A      0.434890    40A      0.569759
      41A      0.586190    42A      0.597516    43A      0.601715
      44A      0.609191    45A      0.616503    46A      0.628864
      47A      0.674101    48A      0.692286    49A      0.739410
      50A      0.795523    51A      0.805327    52A      0.852278
      53A      0.876391    54A      0.881681    55A      0.890406
      56A      0.893337    57A      0.896625    58A      0.898181
      59A      0.902484    60A      0.905025    61A      0.910706
      62A      0.917147    63A      0.926516    64A      0.931107
      65A      0.942919    66A      0.962808    67A      1.006320
      68A      1.016407    69A      1.124038    70A      1.126207
      71A      1.129326    72A      1.141849    73A      1.208952
      74A      1.247588    75A      1.382151    76A      1.465646
      77A      1.475297    78A      1.477935    79A      1.492061
      80A      1.545581    81A      1.589952    82A      1.616810
      83A      1.677624    84A      1.682136    85A      1.685217
      86A      1.696415    87A      1.709578    88A      1.838699
      89A      1.860155    90A      1.873285    91A      1.882586
      92A      1.886457    93A      1.907232    94A      1.916387
      95A      1.927587    96A      1.939957    97A      1.944822
      98A      1.948571    99A      1.951935   100A      1.958647
     101A      1.966137   102A      1.984139   103A      1.995761
     104A      2.012775   105A      2.018488   106A      2.036659
     107A      2.068748   108A      2.105021   109A      2.115161
     110A      2.130324   111A      2.163557   112A      2.280440
     113A      2.307633   114A      2.313325   115A      2.326287
     116A      2.336930   117A      2.349991   118A      2.454475
     119A      2.463732   120A      2.503078   121A      2.533917
     122A      2.565970   123A      2.574350   124A      2.587624
     125A      2.615019   126A      2.628179   127A      2.749875
     128A      2.761293   129A      2.769622   130A      2.786797
     131A      2.792763   132A      2.814235   133A      2.857100
     134A      2.861570   135A      2.913873   136A      2.950820
     137A      2.959361   138A      2.974263   139A      2.977285
     140A      3.071927

    Final Occupation by Irrep:
              A
    DOCC [    22 ]

  @RHF Final Energy:  -197.50270203013986

   => Energetics <=

    Nuclear Repulsion Energy =            174.8764568811452307
    One-Electron Energy =                -610.5684329386373292
    Two-Electron Energy =                 238.1892740273522122
    Total Energy =                       -197.5027020301398579

Computation Completed

Properties will be evaluated at   0.000000,   0.000000,   0.000000 [a0]

Properties computed using the SCF density matrix

  Nuclear Dipole Moment: [e a0]
     X:     0.7002      Y:    -0.6548      Z:     0.6358

  Electronic Dipole Moment: [e a0]
     X:    -0.6723      Y:     0.6595      Z:    -0.6198

  Dipole Moment: [e a0]
     X:     0.0279      Y:     0.0047      Z:     0.0160     Total:     0.0325

  Dipole Moment: [D]
     X:     0.0709      Y:     0.0120      Z:     0.0406     Total:     0.0826

*** tstop() called on ds3 at Mon Apr 27 06:41:28 2020
Module time:
	user time   =      14.68 seconds =       0.24 minutes
	system time =       6.51 seconds =       0.11 minutes
	total time  =         21 seconds =       0.35 minutes
Total time:
	user time   =      14.68 seconds =       0.24 minutes
	system time =       6.51 seconds =       0.11 minutes
	total time  =         21 seconds =       0.35 minutes
                                     G D M A

                                 by Anthony Stone

                           version 2.2.06, 22 June 2011

               Distributed Multipoles from Gaussian wavefunctions

Starting at 6:41:28 on 27 Apr 2020

Using SCF density matrix from file ./SSI/SSI-040THR-162GLN-1-dimer.test.29804.fchk

                         Distributed Multipole Analysis

Standard DMA

Positions and radii in angstrom
Multipole moments in atomic units, ea_0^k for rank k

C          x =  1.551254  y = -0.969068  z =  1.388409 angstrom
           Maximum rank =  0   Radius =  0.650 angstrom
                   Q00  =  -0.228212

C          x =  2.615254  y = -1.997068  z =  1.717409 angstrom
           Maximum rank =  0   Radius =  0.650 angstrom
                   Q00  =  -0.237892

H          x =  0.865254  y = -0.828068  z =  2.215409 angstrom
           Maximum rank =  0   Radius =  0.325 angstrom
                   Q00  =   0.078478

H          x =  2.031254  y = -0.015068  z =  1.167409 angstrom
           Maximum rank =  0   Radius =  0.325 angstrom
                   Q00  =   0.077090

H          x =  0.994254  y = -1.286068  z =  0.506409 angstrom
           Maximum rank =  0   Radius =  0.325 angstrom
                   Q00  =   0.078432

H          x =  3.352254  y = -1.989068  z =  0.913409 angstrom
           Maximum rank =  0   Radius =  0.325 angstrom
                   Q00  =   0.077617

H          x =  2.188594  y = -3.007668  z =  1.798956 angstrom
           Maximum rank =  0   Radius =  0.325 angstrom
                   Q00  =   0.078717

H          x =  3.124704  y = -1.734578  z =  2.656322 angstrom
           Maximum rank =  0   Radius =  0.325 angstrom
                   Q00  =   0.077843

C          x = -0.898746  y =  0.898932  z = -0.856591 angstrom
           Maximum rank =  0   Radius =  0.650 angstrom
                   Q00  =  -0.091299

C          x = -1.848746  y = -0.145068  z = -1.492591 angstrom
           Maximum rank =  0   Radius =  0.650 angstrom
                   Q00  =  -0.245957

C          x = -1.481746  y =  2.270932  z = -0.813591 angstrom
           Maximum rank =  0   Radius =  0.650 angstrom
                   Q00  =  -0.222050

H          x = -0.706746  y =  0.560932  z =  0.163409 angstrom
           Maximum rank =  0   Radius =  0.325 angstrom
                   Q00  =   0.046286

H          x =  0.046254  y =  0.920932  z = -1.402591 angstrom
           Maximum rank =  0   Radius =  0.325 angstrom
                   Q00  =   0.045928

H          x = -2.769746  y = -0.157068  z = -0.912591 angstrom
           Maximum rank =  0   Radius =  0.325 angstrom
                   Q00  =   0.078683

H          x = -1.535746  y =  2.684932  z = -1.821591 angstrom
           Maximum rank =  0   Radius =  0.325 angstrom
                   Q00  =   0.073373

H          x = -2.490746  y =  2.218932  z = -0.404591 angstrom
           Maximum rank =  0   Radius =  0.325 angstrom
                   Q00  =   0.070733

H          x = -1.369956  y = -1.135338  z = -1.481191 angstrom
           Maximum rank =  0   Radius =  0.325 angstrom
                   Q00  =   0.084414

H          x = -2.084946  y =  0.110022  z = -2.536210 angstrom
           Maximum rank =  0   Radius =  0.325 angstrom
                   Q00  =   0.076529

H          x = -0.897736  y =  2.958702  z = -0.184375 angstrom
           Maximum rank =  0   Radius =  0.325 angstrom
                   Q00  =   0.081287

Total multipoles referred to origin at
           x =   0.000000,  y =    0.000000,  z =    0.000000 angstrom
                   Q00  =  -0.000000

Finished at 6:41:28 on 27 Apr 2020

  DMA results are available in the Python driver through the
	  variable('DMA DISTRIBUTED MULTIPOLES')
  and
	  variable('DMA TOTAL MULTIPOLES')
  commands.

    Psi4 stopped on: Monday, 27 April 2020 06:41AM
    Psi4 wall time for execution: 0:00:20.92

*** Psi4 exiting successfully. Buy a developer a beer!
