                               Psi4 1.3.2 release

  ==> Input File <==

--------------------------------------------------------------------------
import numpy as np
set {scf_type pk
basis cc-pvdz
d_convergence 10
gdma_switch   0
gdma_limit    0
gdma_origin   [ 0.0,  0.0,  0.0 ]
}
molecule test {
    units Angstrom
    0 1
    --
    0 1
    C               -0.206136121389450    -1.048943272473832    -0.811521621148844
    C               -1.331136121389451    -2.089943272473831    -0.742521621148844
    C                1.234863878610549    -1.509943272473832    -1.087521621148844
    H               -0.479136121389450    -0.287943272473832    -1.540521621148844
    H               -0.185136121389450    -0.557943272473832     0.156478378851156
    H               -1.068136121389450    -2.804943272473832     0.038478378851156
    H                1.886863878610549    -0.705943272473832    -0.746521621148844
    H               -1.444776121389451    -2.611483272473832    -1.704330621148844
    H               -2.277726121389450    -1.622063272473832    -0.434211621148844
    H                1.515442878610550    -2.411243272473831    -0.522775621148844
    H                1.439965878610549    -1.638763272473832    -2.160526621148845
    C                0.146863878610550     2.318056727526168     0.524478378851156
    C                0.139863878610550     2.240056727526168     2.050478378851156
    H                0.828863878610550     1.576056727526168     0.110478378851156
    H               -0.858136121389450     2.138056727526168     0.140478378851156
    H                0.451863878610550     3.311056727526168     0.194478378851156
    H               -0.403136121389450     3.110056727526168     2.421478378851156
    H                1.163964878610549     2.251486727526168     2.451834378851156
    H               -0.384076121389450     1.333756727526168     2.388274378851156

}
e, wfn = energy('scf', return_wfn=True)
gdma(wfn)
dmavals = variable('DMA DISTRIBUTED MULTIPOLES')
charges = np.array(dmavals)
print(charges)
np.save('SSI-028LEU-037VAL-1-dimer.npy', np.array(charges))--------------------------------------------------------------------------

*** tstart() called on ds3
*** at Tue Apr 28 20:51:47 2020

   => Loading Basis Set <=

    Name: CC-PVDZ
    Role: ORBITAL
    Keyword: BASIS
    atoms 1-3, 12-13  entry C          line   138 file /theoryfs2/ds/metcalf/miniconda2/envs/tf2gpu/share/psi4/basis/cc-pvdz.gbs
    atoms 4-11, 14-19 entry H          line    22 file /theoryfs2/ds/metcalf/miniconda2/envs/tf2gpu/share/psi4/basis/cc-pvdz.gbs

         ---------------------------------------------------------
                                   SCF
               by Justin Turney, Rob Parrish, Andy Simmonett
                          and Daniel G. A. Smith
                              RHF Reference
                        1 Threads,    500 MiB Core
         ---------------------------------------------------------

  ==> Geometry <==

    Molecular point group: c1
    Full point group: C1

    Geometry (in Angstrom), charge = 0, multiplicity = 1:

       Center              X                  Y                   Z               Mass
    ------------   -----------------  -----------------  -----------------  -----------------
         C           -0.206136121389    -1.048943272474    -0.811521621149    12.000000000000
         C           -1.331136121389    -2.089943272474    -0.742521621149    12.000000000000
         C            1.234863878611    -1.509943272474    -1.087521621149    12.000000000000
         H           -0.479136121389    -0.287943272474    -1.540521621149     1.007825032230
         H           -0.185136121389    -0.557943272474     0.156478378851     1.007825032230
         H           -1.068136121389    -2.804943272474     0.038478378851     1.007825032230
         H            1.886863878611    -0.705943272474    -0.746521621149     1.007825032230
         H           -1.444776121389    -2.611483272474    -1.704330621149     1.007825032230
         H           -2.277726121389    -1.622063272474    -0.434211621149     1.007825032230
         H            1.515442878611    -2.411243272474    -0.522775621149     1.007825032230
         H            1.439965878611    -1.638763272474    -2.160526621149     1.007825032230
         C            0.146863878611     2.318056727526     0.524478378851    12.000000000000
         C            0.139863878611     2.240056727526     2.050478378851    12.000000000000
         H            0.828863878611     1.576056727526     0.110478378851     1.007825032230
         H           -0.858136121389     2.138056727526     0.140478378851     1.007825032230
         H            0.451863878611     3.311056727526     0.194478378851     1.007825032230
         H           -0.403136121389     3.110056727526     2.421478378851     1.007825032230
         H            1.163964878611     2.251486727526     2.451834378851     1.007825032230
         H           -0.384076121389     1.333756727526     2.388274378851     1.007825032230

  Running in c1 symmetry.

  Rotational constants: A =      0.19797  B =      0.04335  C =      0.03932 [cm^-1]
  Rotational constants: A =   5934.90424  B =   1299.64252  C =   1178.87879 [MHz]
  Nuclear repulsion =  178.790877100226510

  Charge       = 0
  Multiplicity = 1
  Electrons    = 44
  Nalpha       = 22
  Nbeta        = 22

  ==> Algorithm <==

  SCF Algorithm Type is PK.
  DIIS enabled.
  MOM disabled.
  Fractional occupation disabled.
  Guess Type is SAD.
  Energy threshold   = 1.00e-06
  Density threshold  = 1.00e-10
  Integral threshold = 0.00e+00

  ==> Primary Basis <==

  Basis Set: CC-PVDZ
    Blend: CC-PVDZ
    Number of shells: 72
    Number of basis function: 140
    Number of Cartesian functions: 145
    Spherical Harmonics?: true
    Max angular momentum: 2

  ==> Pre-Iterations <==

   -------------------------------------------------------
    Irrep   Nso     Nmo     Nalpha   Nbeta   Ndocc  Nsocc
   -------------------------------------------------------
     A        140     140       0       0       0       0
   -------------------------------------------------------
    Total     140     140      22      22      22       0
   -------------------------------------------------------

  ==> Integral Setup <==

  Using integral reordering PK algorithm.
  Sizing the integral batches needed.
  Building batch lookup table.
   Calculation information:
      Number of atoms:                  19
      Number of AO shells:              72
      Number of primitives:            180
      Number of atomic orbitals:       145
      Number of basis functions:       140

      Integral cutoff                 1.00e-12
      Number of threads:                 1

	Batch   1 pq = [       0,    9405] index = [             0,44231715] size =     44231715
	Batch   2 pq = [    9405,    9870] index = [      44231715,48713385] size =      4481670
  Task number: 5
  Buffer size: 11059200
  Buffer per thread: 2
  We computed 2932663 shell quartets total.
  Whereas there are 3454506 unique shell quartets.

  ==> DiskJK: Disk-Based J/K Matrices <==

    J tasked:                  Yes
    K tasked:                  Yes
    wK tasked:                  No
    Memory [MiB]:              375
    Schwarz Cutoff:          1E-12

    OpenMP threads:              1

  Minimum eigenvalue in the overlap matrix is 5.4970159859E-03.
  Using Symmetric Orthogonalization.

  SCF Guess: Superposition of Atomic Densities via on-the-fly atomic UHF.

  ==> Iterations <==

                        Total Energy        Delta E     RMS |[F,P]|

   @RHF iter SAD:  -196.32812917938816   -1.96328e+02   0.00000e+00
   @RHF iter   1:  -197.31038762663263   -9.82258e-01   3.77112e-03 DIIS
   @RHF iter   2:  -197.46916548546295   -1.58778e-01   1.61275e-03 DIIS
   @RHF iter   3:  -197.49674692252299   -2.75814e-02   3.23902e-04 DIIS
   @RHF iter   4:  -197.49896326454146   -2.21634e-03   4.89127e-05 DIIS
   @RHF iter   5:  -197.49900231266705   -3.90481e-05   1.48691e-05 DIIS
   @RHF iter   6:  -197.49900572132432   -3.40866e-06   2.39933e-06 DIIS
   @RHF iter   7:  -197.49900582889782   -1.07573e-07   4.82708e-07 DIIS
   @RHF iter   8:  -197.49900583394401   -5.04619e-09   1.35258e-07 DIIS
   @RHF iter   9:  -197.49900583431602   -3.72012e-10   4.11966e-08 DIIS
   @RHF iter  10:  -197.49900583435607   -4.00462e-11   8.55405e-09 DIIS
   @RHF iter  11:  -197.49900583435829   -2.21689e-12   1.57358e-09 DIIS
   @RHF iter  12:  -197.49900583435871   -4.26326e-13   2.99640e-10 DIIS
   @RHF iter  13:  -197.49900583435877   -5.68434e-14   6.15087e-11 DIIS
  Energy and wave function converged.

  ==> Post-Iterations <==

    Orbital Energies [Eh]
    ---------------------

    Doubly Occupied:

       1A    -11.219812     2A    -11.219528     3A    -11.218975
       4A    -11.218102     5A    -11.216169     6A     -1.048294
       7A     -1.018435     8A     -0.928005     9A     -0.836938
      10A     -0.794679    11A     -0.623512    12A     -0.601631
      13A     -0.597338    14A     -0.587202    15A     -0.549261
      16A     -0.536545    17A     -0.501249    18A     -0.486305
      19A     -0.485193    20A     -0.476121    21A     -0.466296
      22A     -0.458117

    Virtual:

      23A      0.167030    24A      0.197828    25A      0.209915
      26A      0.220786    27A      0.242669    28A      0.246761
      29A      0.252121    30A      0.268420    31A      0.273261
      32A      0.282617    33A      0.288179    34A      0.299201
      35A      0.337248    36A      0.351950    37A      0.377472
      38A      0.406849    39A      0.435730    40A      0.568461
      41A      0.580501    42A      0.598921    43A      0.607424
      44A      0.616535    45A      0.627073    46A      0.642184
      47A      0.646382    48A      0.687665    49A      0.770365
      50A      0.781714    51A      0.811677    52A      0.844471
      53A      0.867269    54A      0.875498    55A      0.886634
      56A      0.890894    57A      0.893403    58A      0.897693
      59A      0.898624    60A      0.908163    61A      0.915790
      62A      0.922908    63A      0.926187    64A      0.932927
      65A      0.949060    66A      0.967330    67A      1.013879
      68A      1.034643    69A      1.113874    70A      1.119135
      71A      1.126520    72A      1.155492    73A      1.223166
      74A      1.252229    75A      1.372629    76A      1.454846
      77A      1.473645    78A      1.475774    79A      1.493857
      80A      1.522029    81A      1.569458    82A      1.649701
      83A      1.670777    84A      1.683146    85A      1.686228
      86A      1.700168    87A      1.717037    88A      1.852837
      89A      1.854811    90A      1.862396    91A      1.872971
      92A      1.889213    93A      1.898396    94A      1.906206
      95A      1.923979    96A      1.928424    97A      1.934665
      98A      1.946034    99A      1.953783   100A      1.962088
     101A      1.968433   102A      1.985768   103A      1.994060
     104A      2.000528   105A      2.014539   106A      2.027484
     107A      2.062689   108A      2.099898   109A      2.113289
     110A      2.148287   111A      2.179751   112A      2.274870
     113A      2.295013   114A      2.302498   115A      2.322341
     116A      2.331326   117A      2.365786   118A      2.443583
     119A      2.468210   120A      2.469607   121A      2.542103
     122A      2.567792   123A      2.574530   124A      2.582360
     125A      2.617840   126A      2.626870   127A      2.748011
     128A      2.754654   129A      2.766585   130A      2.783933
     131A      2.796204   132A      2.819552   133A      2.849039
     134A      2.853159   135A      2.906935   136A      2.937477
     137A      2.965852   138A      2.981145   139A      2.984614
     140A      3.060801

    Final Occupation by Irrep:
              A
    DOCC [    22 ]

  @RHF Final Energy:  -197.49900583435877

   => Energetics <=

    Nuclear Repulsion Energy =            178.7908771002265098
    One-Electron Energy =                -618.4043433828344405
    Two-Electron Energy =                 242.1144604482491616
    Total Energy =                       -197.4990058343587691

Computation Completed

Properties will be evaluated at   0.000000,   0.000000,   0.000000 [a0]

Properties computed using the SCF density matrix

  Nuclear Dipole Moment: [e a0]
     X:     0.1750      Y:     1.0126      Z:     0.7435

  Electronic Dipole Moment: [e a0]
     X:    -0.1760      Y:    -0.9568      Z:    -0.7291

  Dipole Moment: [e a0]
     X:    -0.0010      Y:     0.0558      Z:     0.0144     Total:     0.0576

  Dipole Moment: [D]
     X:    -0.0025      Y:     0.1418      Z:     0.0367     Total:     0.1465

*** tstop() called on ds3 at Tue Apr 28 20:52:07 2020
Module time:
	user time   =      14.69 seconds =       0.24 minutes
	system time =       5.35 seconds =       0.09 minutes
	total time  =         20 seconds =       0.33 minutes
Total time:
	user time   =      14.69 seconds =       0.24 minutes
	system time =       5.35 seconds =       0.09 minutes
	total time  =         20 seconds =       0.33 minutes
                                     G D M A

                                 by Anthony Stone

                           version 2.2.06, 22 June 2011

               Distributed Multipoles from Gaussian wavefunctions

Starting at 20:52:7 on 28 Apr 2020

Using SCF density matrix from file ./SSI/SSI-028LEU-037VAL-1-dimer.test.31625.fchk

                         Distributed Multipole Analysis

Standard DMA

Positions and radii in angstrom
Multipole moments in atomic units, ea_0^k for rank k

C          x = -0.206136  y = -1.048943  z = -0.811522 angstrom
           Maximum rank =  0   Radius =  0.650 angstrom
                   Q00  =  -0.096143

C          x = -1.331136  y = -2.089943  z = -0.742522 angstrom
           Maximum rank =  0   Radius =  0.650 angstrom
                   Q00  =  -0.230772

C          x =  1.234864  y = -1.509943  z = -1.087522 angstrom
           Maximum rank =  0   Radius =  0.650 angstrom
                   Q00  =  -0.254319

H          x = -0.479136  y = -0.287943  z = -1.540522 angstrom
           Maximum rank =  0   Radius =  0.325 angstrom
                   Q00  =   0.047517

H          x = -0.185136  y = -0.557943  z =  0.156478 angstrom
           Maximum rank =  0   Radius =  0.325 angstrom
                   Q00  =   0.043352

H          x = -1.068136  y = -2.804943  z =  0.038478 angstrom
           Maximum rank =  0   Radius =  0.325 angstrom
                   Q00  =   0.075818

H          x =  1.886864  y = -0.705943  z = -0.746522 angstrom
           Maximum rank =  0   Radius =  0.325 angstrom
                   Q00  =   0.085950

H          x = -1.444776  y = -2.611483  z = -1.704331 angstrom
           Maximum rank =  0   Radius =  0.325 angstrom
                   Q00  =   0.078065

H          x = -2.277726  y = -1.622063  z = -0.434212 angstrom
           Maximum rank =  0   Radius =  0.325 angstrom
                   Q00  =   0.086122

H          x =  1.515443  y = -2.411243  z = -0.522776 angstrom
           Maximum rank =  0   Radius =  0.325 angstrom
                   Q00  =   0.081106

H          x =  1.439966  y = -1.638763  z = -2.160527 angstrom
           Maximum rank =  0   Radius =  0.325 angstrom
                   Q00  =   0.081742

C          x =  0.146864  y =  2.318057  z =  0.524478 angstrom
           Maximum rank =  0   Radius =  0.650 angstrom
                   Q00  =  -0.236207

C          x =  0.139864  y =  2.240057  z =  2.050478 angstrom
           Maximum rank =  0   Radius =  0.650 angstrom
                   Q00  =  -0.235419

H          x =  0.828864  y =  1.576057  z =  0.110478 angstrom
           Maximum rank =  0   Radius =  0.325 angstrom
                   Q00  =   0.080414

H          x = -0.858136  y =  2.138057  z =  0.140478 angstrom
           Maximum rank =  0   Radius =  0.325 angstrom
                   Q00  =   0.078698

H          x =  0.451864  y =  3.311057  z =  0.194478 angstrom
           Maximum rank =  0   Radius =  0.325 angstrom
                   Q00  =   0.078526

H          x = -0.403136  y =  3.110057  z =  2.421478 angstrom
           Maximum rank =  0   Radius =  0.325 angstrom
                   Q00  =   0.078024

H          x =  1.163965  y =  2.251487  z =  2.451834 angstrom
           Maximum rank =  0   Radius =  0.325 angstrom
                   Q00  =   0.079858

H          x = -0.384076  y =  1.333757  z =  2.388274 angstrom
           Maximum rank =  0   Radius =  0.325 angstrom
                   Q00  =   0.077670

Total multipoles referred to origin at
           x =   0.000000,  y =    0.000000,  z =    0.000000 angstrom
                   Q00  =  -0.000000

Finished at 20:52:7 on 28 Apr 2020

  DMA results are available in the Python driver through the
	  variable('DMA DISTRIBUTED MULTIPOLES')
  and
	  variable('DMA TOTAL MULTIPOLES')
  commands.

    Psi4 stopped on: Tuesday, 28 April 2020 08:52PM
    Psi4 wall time for execution: 0:00:19.81

*** Psi4 exiting successfully. Buy a developer a beer!
