                               Psi4 1.3.2 release

  ==> Input File <==

--------------------------------------------------------------------------
import numpy as np
set {scf_type pk
basis cc-pvdz
d_convergence 10
gdma_switch   0
gdma_limit    0
gdma_origin   [ 0.0,  0.0,  0.0 ]
}
molecule test {
    units Angstrom
    0 1
    --
    0 1
    C                0.289271375910225    -1.365793891797291     2.017476446467534
    C               -0.143728624089775     0.060206108202709     1.696476446467534
    O                0.670271375910225     0.979206108202709     1.681476446467534
    N               -1.412728624089775     0.269206108202709     1.404476446467534
    H                1.050271375910225    -1.305793891797291     2.797476446467535
    H                0.746271375910225    -1.799793891797291     1.127476446467534
    H               -1.655728624089775     1.247206108202709     1.294476446467534
    H               -2.132728624089775    -0.361793891797291     1.699476446467534
    H               -0.535840624089775    -2.002308891797291     2.369667446467534
    C                0.242271375910225    -0.005793891797291    -1.730523553532466
    C               -1.059728624089775    -0.176793891797291    -2.516523553532466
    C                1.495271375910225     0.207206108202709    -2.565523553532466
    H                0.111271375910225     0.873206108202709    -1.096523553532466
    H                0.390271375910225    -0.872793891797291    -1.084523553532466
    H               -1.132728624089775     0.640206108202709    -3.239523553532466
    H                1.744271375910225    -0.728793891797291    -3.066523553532465
    H                1.306271375910225     0.992206108202709    -3.299523553532465
    H               -1.921335624089775    -0.119253891797291    -1.835111553532466
    H               -1.080022624089775    -1.115369891797291    -3.089815553532466
    H                2.297440375910225     0.524206108202709    -1.882856553532466

}
e, wfn = energy('scf', return_wfn=True)
gdma(wfn)
dmavals = variable('DMA DISTRIBUTED MULTIPOLES')
charges = np.array(dmavals)
print(charges)
np.save('SSI-093ASN-096LYS-1-dimer.npy', np.array(charges))--------------------------------------------------------------------------

*** tstart() called on ds3
*** at Tue Apr 28 09:23:32 2020

   => Loading Basis Set <=

    Name: CC-PVDZ
    Role: ORBITAL
    Keyword: BASIS
    atoms 1-2, 10-12 entry C          line   138 file /theoryfs2/ds/metcalf/miniconda2/envs/tf2gpu/share/psi4/basis/cc-pvdz.gbs
    atoms 3          entry O          line   198 file /theoryfs2/ds/metcalf/miniconda2/envs/tf2gpu/share/psi4/basis/cc-pvdz.gbs
    atoms 4          entry N          line   168 file /theoryfs2/ds/metcalf/miniconda2/envs/tf2gpu/share/psi4/basis/cc-pvdz.gbs
    atoms 5-9, 13-20 entry H          line    22 file /theoryfs2/ds/metcalf/miniconda2/envs/tf2gpu/share/psi4/basis/cc-pvdz.gbs

         ---------------------------------------------------------
                                   SCF
               by Justin Turney, Rob Parrish, Andy Simmonett
                          and Daniel G. A. Smith
                              RHF Reference
                        1 Threads,    500 MiB Core
         ---------------------------------------------------------

  ==> Geometry <==

    Molecular point group: c1
    Full point group: C1

    Geometry (in Angstrom), charge = 0, multiplicity = 1:

       Center              X                  Y                   Z               Mass
    ------------   -----------------  -----------------  -----------------  -----------------
         C            0.289271375910    -1.365793891797     2.017476446468    12.000000000000
         C           -0.143728624090     0.060206108203     1.696476446468    12.000000000000
         O            0.670271375910     0.979206108203     1.681476446468    15.994914619570
         N           -1.412728624090     0.269206108203     1.404476446468    14.003074004430
         H            1.050271375910    -1.305793891797     2.797476446468     1.007825032230
         H            0.746271375910    -1.799793891797     1.127476446468     1.007825032230
         H           -1.655728624090     1.247206108203     1.294476446468     1.007825032230
         H           -2.132728624090    -0.361793891797     1.699476446468     1.007825032230
         H           -0.535840624090    -2.002308891797     2.369667446468     1.007825032230
         C            0.242271375910    -0.005793891797    -1.730523553532    12.000000000000
         C           -1.059728624090    -0.176793891797    -2.516523553532    12.000000000000
         C            1.495271375910     0.207206108203    -2.565523553532    12.000000000000
         H            0.111271375910     0.873206108203    -1.096523553532     1.007825032230
         H            0.390271375910    -0.872793891797    -1.084523553532     1.007825032230
         H           -1.132728624090     0.640206108203    -3.239523553532     1.007825032230
         H            1.744271375910    -0.728793891797    -3.066523553532     1.007825032230
         H            1.306271375910     0.992206108203    -3.299523553532     1.007825032230
         H           -1.921335624090    -0.119253891797    -1.835111553532     1.007825032230
         H           -1.080022624090    -1.115369891797    -3.089815553532     1.007825032230
         H            2.297440375910     0.524206108203    -1.882856553532     1.007825032230

  Running in c1 symmetry.

  Rotational constants: A =      0.10878  B =      0.03550  C =      0.03239 [cm^-1]
  Rotational constants: A =   3261.09930  B =   1064.17113  C =    971.05922 [MHz]
  Nuclear repulsion =  307.875702411884447

  Charge       = 0
  Multiplicity = 1
  Electrons    = 58
  Nalpha       = 29
  Nbeta        = 29

  ==> Algorithm <==

  SCF Algorithm Type is PK.
  DIIS enabled.
  MOM disabled.
  Fractional occupation disabled.
  Guess Type is SAD.
  Energy threshold   = 1.00e-06
  Density threshold  = 1.00e-10
  Integral threshold = 0.00e+00

  ==> Primary Basis <==

  Basis Set: CC-PVDZ
    Blend: CC-PVDZ
    Number of shells: 81
    Number of basis function: 163
    Number of Cartesian functions: 170
    Spherical Harmonics?: true
    Max angular momentum: 2

  ==> Pre-Iterations <==

   -------------------------------------------------------
    Irrep   Nso     Nmo     Nalpha   Nbeta   Ndocc  Nsocc
   -------------------------------------------------------
     A        163     163       0       0       0       0
   -------------------------------------------------------
    Total     163     163      29      29      29       0
   -------------------------------------------------------

  ==> Integral Setup <==

  Using integral reordering PK algorithm.
  Sizing the integral batches needed.
  Building batch lookup table.
   Calculation information:
      Number of atoms:                  20
      Number of AO shells:              81
      Number of primitives:            219
      Number of atomic orbitals:       170
      Number of basis functions:       163

      Integral cutoff                 1.00e-12
      Number of threads:                 1

	Batch   1 pq = [       0,    9405] index = [             0,44231715] size =     44231715
	Batch   2 pq = [    9405,   13366] index = [      44231715,89331661] size =     45099946
  Task number: 9
  Buffer size: 11059200
  Buffer per thread: 2
  We computed 5153226 shell quartets total.
  Whereas there are 5516181 unique shell quartets.

  ==> DiskJK: Disk-Based J/K Matrices <==

    J tasked:                  Yes
    K tasked:                  Yes
    wK tasked:                  No
    Memory [MiB]:              375
    Schwarz Cutoff:          1E-12

    OpenMP threads:              1

  Minimum eigenvalue in the overlap matrix is 4.3352143921E-03.
  Using Symmetric Orthogonalization.

  SCF Guess: Superposition of Atomic Densities via on-the-fly atomic UHF.

  ==> Iterations <==

                        Total Energy        Delta E     RMS |[F,P]|

   @RHF iter SAD:  -324.97225223283493   -3.24972e+02   0.00000e+00
   @RHF iter   1:  -325.99988687402964   -1.02763e+00   4.15563e-03 DIIS
   @RHF iter   2:  -326.20269712699405   -2.02810e-01   2.27458e-03 DIIS
   @RHF iter   3:  -326.25687210480561   -5.41750e-02   4.86574e-04 DIIS
   @RHF iter   4:  -326.26066835088648   -3.79625e-03   2.02830e-04 DIIS
   @RHF iter   5:  -326.26134136737568   -6.73016e-04   3.16533e-05 DIIS
   @RHF iter   6:  -326.26137496121464   -3.35938e-05   1.41354e-05 DIIS
   @RHF iter   7:  -326.26138067730380   -5.71609e-06   5.45020e-06 DIIS
   @RHF iter   8:  -326.26138184223760   -1.16493e-06   1.84105e-06 DIIS
   @RHF iter   9:  -326.26138197985904   -1.37621e-07   4.95588e-07 DIIS
   @RHF iter  10:  -326.26138198667201   -6.81297e-09   1.61612e-07 DIIS
   @RHF iter  11:  -326.26138198751647   -8.44466e-10   3.85646e-08 DIIS
   @RHF iter  12:  -326.26138198756479   -4.83169e-11   9.24885e-09 DIIS
   @RHF iter  13:  -326.26138198756610   -1.30740e-12   2.24829e-09 DIIS
   @RHF iter  14:  -326.26138198756740   -1.30740e-12   8.53492e-10 DIIS
   @RHF iter  15:  -326.26138198756962   -2.21689e-12   3.39836e-10 DIIS
   @RHF iter  16:  -326.26138198756729    2.33058e-12   1.31195e-10 DIIS
   @RHF iter  17:  -326.26138198756746   -1.70530e-13   6.09121e-11 DIIS
  Energy and wave function converged.

  ==> Post-Iterations <==

    Orbital Energies [Eh]
    ---------------------

    Doubly Occupied:

       1A    -20.505698     2A    -15.589645     3A    -11.348663
       4A    -11.243777     5A    -11.213508     6A    -11.210073
       7A    -11.208603     8A     -1.372753     9A     -1.220751
      10A     -1.047053    11A     -0.999083    12A     -0.919848
      13A     -0.801770    14A     -0.786750    15A     -0.728092
      16A     -0.654635    17A     -0.620958    18A     -0.614864
      19A     -0.586306    20A     -0.569754    21A     -0.556029
      22A     -0.546863    23A     -0.526870    24A     -0.525923
      25A     -0.465141    26A     -0.462137    27A     -0.455721
      28A     -0.414261    29A     -0.405936

    Virtual:

      30A      0.157065    31A      0.180871    32A      0.203406
      33A      0.208554    34A      0.225701    35A      0.239731
      36A      0.246902    37A      0.263083    38A      0.268323
      39A      0.272845    40A      0.295635    41A      0.301546
      42A      0.312834    43A      0.356984    44A      0.368901
      45A      0.399410    46A      0.434549    47A      0.471873
      48A      0.551481    49A      0.583865    50A      0.612920
      51A      0.614656    52A      0.618913    53A      0.630074
      54A      0.665193    55A      0.680458    56A      0.697589
      57A      0.719928    58A      0.761877    59A      0.787039
      60A      0.804548    61A      0.824910    62A      0.841913
      63A      0.864429    64A      0.874369    65A      0.890928
      66A      0.898211    67A      0.900944    68A      0.906796
      69A      0.909804    70A      0.918694    71A      0.920530
      72A      0.937554    73A      0.942271    74A      0.959723
      75A      0.964936    76A      1.000893    77A      1.015802
      78A      1.057566    79A      1.069816    80A      1.110182
      81A      1.125452    82A      1.135826    83A      1.217062
      84A      1.228087    85A      1.257184    86A      1.343589
      87A      1.372086    88A      1.395445    89A      1.415803
      90A      1.426181    91A      1.449001    92A      1.476496
      93A      1.503990    94A      1.548128    95A      1.574160
      96A      1.624054    97A      1.648903    98A      1.660705
      99A      1.684824   100A      1.690299   101A      1.709110
     102A      1.759438   103A      1.827593   104A      1.830793
     105A      1.868730   106A      1.875832   107A      1.881230
     108A      1.888382   109A      1.900982   110A      1.913407
     111A      1.924095   112A      1.928118   113A      1.944238
     114A      1.965720   115A      1.979300   116A      1.990723
     117A      2.009522   118A      2.013097   119A      2.018110
     120A      2.046787   121A      2.055844   122A      2.081684
     123A      2.094015   124A      2.141808   125A      2.146396
     126A      2.175912   127A      2.222071   128A      2.280227
     129A      2.289750   130A      2.307855   131A      2.329950
     132A      2.368400   133A      2.399336   134A      2.427552
     135A      2.485695   136A      2.508070   137A      2.541572
     138A      2.546169   139A      2.583925   140A      2.587385
     141A      2.625755   142A      2.641261   143A      2.704446
     144A      2.748310   145A      2.754099   146A      2.769554
     147A      2.775384   148A      2.790531   149A      2.802356
     150A      2.812800   151A      2.885786   152A      2.924207
     153A      2.959390   154A      2.971352   155A      2.998690
     156A      3.086379   157A      3.092654   158A      3.144032
     159A      3.244246   160A      3.471675   161A      3.541253
     162A      3.866535   163A      3.901997

    Final Occupation by Irrep:
              A
    DOCC [    29 ]

  @RHF Final Energy:  -326.26138198756746

   => Energetics <=

    Nuclear Repulsion Energy =            307.8757024118844470
    One-Electron Energy =               -1053.0712347590772424
    Two-Electron Energy =                 418.9341503596252778
    Total Energy =                       -326.2613819875674608

Computation Completed

Properties will be evaluated at   0.000000,   0.000000,   0.000000 [a0]

Properties computed using the SCF density matrix

  Nuclear Dipole Moment: [e a0]
     X:    -0.7542      Y:    -3.7730      Z:    -8.7199

  Electronic Dipole Moment: [e a0]
     X:    -0.5137      Y:     2.8896      Z:     9.0153

  Dipole Moment: [e a0]
     X:    -1.2679      Y:    -0.8834      Z:     0.2954     Total:     1.5733

  Dipole Moment: [D]
     X:    -3.2227      Y:    -2.2454      Z:     0.7509     Total:     3.9990

*** tstop() called on ds3 at Tue Apr 28 09:24:27 2020
Module time:
	user time   =      39.71 seconds =       0.66 minutes
	system time =      17.21 seconds =       0.29 minutes
	total time  =         55 seconds =       0.92 minutes
Total time:
	user time   =      39.71 seconds =       0.66 minutes
	system time =      17.21 seconds =       0.29 minutes
	total time  =         55 seconds =       0.92 minutes
                                     G D M A

                                 by Anthony Stone

                           version 2.2.06, 22 June 2011

               Distributed Multipoles from Gaussian wavefunctions

Starting at 9:24:27 on 28 Apr 2020

Using SCF density matrix from file ./SSI/SSI-093ASN-096LYS-1-dimer.test.10403.fchk

                         Distributed Multipole Analysis

Standard DMA

Positions and radii in angstrom
Multipole moments in atomic units, ea_0^k for rank k

C          x =  0.289271  y = -1.365794  z =  2.017476 angstrom
           Maximum rank =  0   Radius =  0.650 angstrom
                   Q00  =  -0.267121

C          x = -0.143729  y =  0.060206  z =  1.696476 angstrom
           Maximum rank =  0   Radius =  0.650 angstrom
                   Q00  =   0.801848

O          x =  0.670271  y =  0.979206  z =  1.681476 angstrom
           Maximum rank =  0   Radius =  0.650 angstrom
                   Q00  =  -0.786541

N          x = -1.412729  y =  0.269206  z =  1.404476 angstrom
           Maximum rank =  0   Radius =  0.650 angstrom
                   Q00  =  -0.498558

H          x =  1.050271  y = -1.305794  z =  2.797476 angstrom
           Maximum rank =  0   Radius =  0.325 angstrom
                   Q00  =   0.127767

H          x =  0.746271  y = -1.799794  z =  1.127476 angstrom
           Maximum rank =  0   Radius =  0.325 angstrom
                   Q00  =   0.136806

H          x = -1.655729  y =  1.247206  z =  1.294476 angstrom
           Maximum rank =  0   Radius =  0.325 angstrom
                   Q00  =   0.207761

H          x = -2.132729  y = -0.361794  z =  1.699476 angstrom
           Maximum rank =  0   Radius =  0.325 angstrom
                   Q00  =   0.201312

H          x = -0.535841  y = -2.002309  z =  2.369667 angstrom
           Maximum rank =  0   Radius =  0.325 angstrom
                   Q00  =   0.082348

C          x =  0.242271  y = -0.005794  z = -1.730524 angstrom
           Maximum rank =  0   Radius =  0.650 angstrom
                   Q00  =  -0.068917

C          x = -1.059729  y = -0.176794  z = -2.516524 angstrom
           Maximum rank =  0   Radius =  0.650 angstrom
                   Q00  =  -0.229067

C          x =  1.495271  y =  0.207206  z = -2.565524 angstrom
           Maximum rank =  0   Radius =  0.650 angstrom
                   Q00  =  -0.250148

H          x =  0.111271  y =  0.873206  z = -1.096524 angstrom
           Maximum rank =  0   Radius =  0.325 angstrom
                   Q00  =   0.054217

H          x =  0.390271  y = -0.872794  z = -1.084524 angstrom
           Maximum rank =  0   Radius =  0.325 angstrom
                   Q00  =   0.028797

H          x = -1.132729  y =  0.640206  z = -3.239524 angstrom
           Maximum rank =  0   Radius =  0.325 angstrom
                   Q00  =   0.074030

H          x =  1.744271  y = -0.728794  z = -3.066524 angstrom
           Maximum rank =  0   Radius =  0.325 angstrom
                   Q00  =   0.070923

H          x =  1.306271  y =  0.992206  z = -3.299524 angstrom
           Maximum rank =  0   Radius =  0.325 angstrom
                   Q00  =   0.076107

H          x = -1.921336  y = -0.119254  z = -1.835112 angstrom
           Maximum rank =  0   Radius =  0.325 angstrom
                   Q00  =   0.075331

H          x = -1.080023  y = -1.115370  z = -3.089816 angstrom
           Maximum rank =  0   Radius =  0.325 angstrom
                   Q00  =   0.072611

H          x =  2.297440  y =  0.524206  z = -1.882857 angstrom
           Maximum rank =  0   Radius =  0.325 angstrom
                   Q00  =   0.090494

Total multipoles referred to origin at
           x =   0.000000,  y =    0.000000,  z =    0.000000 angstrom
                   Q00  =  -0.000000

Finished at 9:24:27 on 28 Apr 2020

  DMA results are available in the Python driver through the
	  variable('DMA DISTRIBUTED MULTIPOLES')
  and
	  variable('DMA TOTAL MULTIPOLES')
  commands.

    Psi4 stopped on: Tuesday, 28 April 2020 09:24AM
    Psi4 wall time for execution: 0:00:54.99

*** Psi4 exiting successfully. Buy a developer a beer!
