                               Psi4 1.3.2 release

  ==> Input File <==

--------------------------------------------------------------------------
import numpy as np
set {scf_type pk
basis cc-pvdz
d_convergence 10
gdma_switch   0
gdma_limit    0
gdma_origin   [ 0.0,  0.0,  0.0 ]
}
molecule test {
    units Angstrom
    0 1
    --
    0 1
    C                4.410149424989855    -0.141032044478636     2.644319930068036
    C                1.028149424989856     0.025967955521364     0.982319930068036
    C                1.312149424989856     0.745967955521364    -0.157680069931964
    C                2.029149424989856    -0.267032044478636     1.886319930068036
    C                3.326149424989855     0.138967955521364     1.639319930068036
    C                2.581149424989856     1.165967955521364    -0.420680069931964
    C                3.603149424989855     0.870967955521364     0.487319930068036
    H                0.011149424989856    -0.251032044478636     1.208319930068036
    H                0.516149424989856     0.996967955521364    -0.845680069931964
    H                1.789149424989856    -0.798032044478636     2.796319930068036
    H                2.792149424989856     1.748967955521364    -1.305680069931964
    H                5.364149424989856    -0.212032044478636     2.117319930068036
    H                4.226149424989855    -1.105032044478636     3.112319930068036
    H                4.606149424989856     1.225967955521364     0.297319930068036
    H                4.484430424989856     0.628914955521364     3.426409930068036
    C               -1.411850575010144    -1.729032044478636    -0.680680069931964
    C               -2.190850575010144    -2.967032044478636    -1.106680069931964
    C               -2.174850575010145    -0.456032044478636    -0.908680069931964
    C               -2.045850575010144     0.473967955521364    -1.879680069931964
    C               -3.702850575010144     1.091967955521363    -0.570680069931964
    N               -3.234850575010145    -0.063032044478636    -0.114680069931964
    N               -2.993850575010145     1.434967955521364    -1.626680069931964
    H               -1.196850575010144    -1.825032044478636     0.382319930068036
    H               -0.466850575010144    -1.674032044478636    -1.220680069931964
    H               -3.114850575010145    -3.016032044478636    -0.528680069931964
    H               -1.322850575010144     0.464967955521364    -2.685680069931964
    H               -4.520850575010145     1.663967955521364    -0.145680069931964
    H               -3.118850575010145     2.303967955521363    -2.141680069931964
    H               -1.577042575010144    -3.856335044478636    -0.900816069931964
    H               -2.462900575010144    -2.899200044478636    -2.170347069931964

}
e, wfn = energy('scf', return_wfn=True)
gdma(wfn)
dmavals = variable('DMA DISTRIBUTED MULTIPOLES')
charges = np.array(dmavals)
print(charges)
np.save('SSI-074PHE-083HIE-1-dimer.npy', np.array(charges))--------------------------------------------------------------------------

*** tstart() called on ds3
*** at Mon Apr 27 16:13:31 2020

   => Loading Basis Set <=

    Name: CC-PVDZ
    Role: ORBITAL
    Keyword: BASIS
    atoms 1-7, 16-20  entry C          line   138 file /theoryfs2/ds/metcalf/miniconda2/envs/tf2gpu/share/psi4/basis/cc-pvdz.gbs
    atoms 8-15, 23-30 entry H          line    22 file /theoryfs2/ds/metcalf/miniconda2/envs/tf2gpu/share/psi4/basis/cc-pvdz.gbs
    atoms 21-22       entry N          line   168 file /theoryfs2/ds/metcalf/miniconda2/envs/tf2gpu/share/psi4/basis/cc-pvdz.gbs

         ---------------------------------------------------------
                                   SCF
               by Justin Turney, Rob Parrish, Andy Simmonett
                          and Daniel G. A. Smith
                              RHF Reference
                        1 Threads,    500 MiB Core
         ---------------------------------------------------------

  ==> Geometry <==

    Molecular point group: c1
    Full point group: C1

    Geometry (in Angstrom), charge = 0, multiplicity = 1:

       Center              X                  Y                   Z               Mass
    ------------   -----------------  -----------------  -----------------  -----------------
         C            4.410149424990    -0.141032044479     2.644319930068    12.000000000000
         C            1.028149424990     0.025967955521     0.982319930068    12.000000000000
         C            1.312149424990     0.745967955521    -0.157680069932    12.000000000000
         C            2.029149424990    -0.267032044479     1.886319930068    12.000000000000
         C            3.326149424990     0.138967955521     1.639319930068    12.000000000000
         C            2.581149424990     1.165967955521    -0.420680069932    12.000000000000
         C            3.603149424990     0.870967955521     0.487319930068    12.000000000000
         H            0.011149424990    -0.251032044479     1.208319930068     1.007825032230
         H            0.516149424990     0.996967955521    -0.845680069932     1.007825032230
         H            1.789149424990    -0.798032044479     2.796319930068     1.007825032230
         H            2.792149424990     1.748967955521    -1.305680069932     1.007825032230
         H            5.364149424990    -0.212032044479     2.117319930068     1.007825032230
         H            4.226149424990    -1.105032044479     3.112319930068     1.007825032230
         H            4.606149424990     1.225967955521     0.297319930068     1.007825032230
         H            4.484430424990     0.628914955521     3.426409930068     1.007825032230
         C           -1.411850575010    -1.729032044479    -0.680680069932    12.000000000000
         C           -2.190850575010    -2.967032044479    -1.106680069932    12.000000000000
         C           -2.174850575010    -0.456032044479    -0.908680069932    12.000000000000
         C           -2.045850575010     0.473967955521    -1.879680069932    12.000000000000
         C           -3.702850575010     1.091967955521    -0.570680069932    12.000000000000
         N           -3.234850575010    -0.063032044479    -0.114680069932    14.003074004430
         N           -2.993850575010     1.434967955521    -1.626680069932    14.003074004430
         H           -1.196850575010    -1.825032044479     0.382319930068     1.007825032230
         H           -0.466850575010    -1.674032044479    -1.220680069932     1.007825032230
         H           -3.114850575010    -3.016032044479    -0.528680069932     1.007825032230
         H           -1.322850575010     0.464967955521    -2.685680069932     1.007825032230
         H           -4.520850575010     1.663967955521    -0.145680069932     1.007825032230
         H           -3.118850575010     2.303967955521    -2.141680069932     1.007825032230
         H           -1.577042575010    -3.856335044479    -0.900816069932     1.007825032230
         H           -2.462900575010    -2.899200044479    -2.170347069932     1.007825032230

  Running in c1 symmetry.

  Rotational constants: A =      0.04205  B =      0.00934  C =      0.00856 [cm^-1]
  Rotational constants: A =   1260.48832  B =    280.03674  C =    256.68413 [MHz]
  Nuclear repulsion =  807.034313251147182

  Charge       = 0
  Multiplicity = 1
  Electrons    = 102
  Nalpha       = 51
  Nbeta        = 51

  ==> Algorithm <==

  SCF Algorithm Type is PK.
  DIIS enabled.
  MOM disabled.
  Fractional occupation disabled.
  Guess Type is SAD.
  Energy threshold   = 1.00e-06
  Density threshold  = 1.00e-10
  Integral threshold = 0.00e+00

  ==> Primary Basis <==

  Basis Set: CC-PVDZ
    Blend: CC-PVDZ
    Number of shells: 132
    Number of basis function: 276
    Number of Cartesian functions: 290
    Spherical Harmonics?: true
    Max angular momentum: 2

  ==> Pre-Iterations <==

   -------------------------------------------------------
    Irrep   Nso     Nmo     Nalpha   Nbeta   Ndocc  Nsocc
   -------------------------------------------------------
     A        276     276       0       0       0       0
   -------------------------------------------------------
    Total     276     276      51      51      51       0
   -------------------------------------------------------

  ==> Integral Setup <==

  Using integral reordering PK algorithm.
  Sizing the integral batches needed.
  Building batch lookup table.
   Calculation information:
      Number of atoms:                  30
      Number of AO shells:             132
      Number of primitives:            388
      Number of atomic orbitals:       290
      Number of basis functions:       276

      Integral cutoff                 1.00e-12
      Number of threads:                 1

	Batch   1 pq = [       0,    9405] index = [             0,44231715] size =     44231715
	Batch   2 pq = [    9405,   13301] index = [      44231715,88464951] size =     44233236
	Batch   3 pq = [   13301,   16290] index = [      88464951,132690195] size =     44225244
	Batch   4 pq = [   16290,   18810] index = [     132690195,176917455] size =     44227260
	Batch   5 pq = [   18810,   21030] index = [     176917455,221140965] size =     44223510
	Batch   6 pq = [   21030,   23037] index = [     221140965,265363203] size =     44222238
	Batch   7 pq = [   23037,   24883] index = [     265363203,309594286] size =     44231083
	Batch   8 pq = [   24883,   26601] index = [     309594286,353819901] size =     44225615
	Batch   9 pq = [   26601,   28214] index = [     353819901,398029005] size =     44209104
	Batch  10 pq = [   28214,   29740] index = [     398029005,442248670] size =     44219665
	Batch  11 pq = [   29740,   31191] index = [     442248670,486454836] size =     44206166
	Batch  12 pq = [   31191,   32578] index = [     486454836,530679331] size =     44224495
	Batch  13 pq = [   32578,   33908] index = [     530679331,574893186] size =     44213855
	Batch  14 pq = [   33908,   35188] index = [     574893186,619115266] size =     44222080
	Batch  15 pq = [   35188,   36423] index = [     619115266,663335676] size =     44220410
	Batch  16 pq = [   36423,   37617] index = [     663335676,707538153] size =     44202477
	Batch  17 pq = [   37617,   38226] index = [     707538153,730632651] size =     23094498
  Task number: 67
  Buffer size: 11059200
  Buffer per thread: 2
  We computed 34709565 shell quartets total.
  Whereas there are 38531031 unique shell quartets.

  ==> DiskJK: Disk-Based J/K Matrices <==

    J tasked:                  Yes
    K tasked:                  Yes
    wK tasked:                  No
    Memory [MiB]:              375
    Schwarz Cutoff:          1E-12

    OpenMP threads:              1

  Minimum eigenvalue in the overlap matrix is 2.8348278544E-04.
  Using Symmetric Orthogonalization.

  SCF Guess: Superposition of Atomic Densities via on-the-fly atomic UHF.

  ==> Iterations <==

                        Total Energy        Delta E     RMS |[F,P]|

   @RHF iter SAD:  -571.93763559389970   -5.71938e+02   0.00000e+00
   @RHF iter   1:  -572.34586777479058   -4.08232e-01   2.48311e-03 DIIS
   @RHF iter   2:  -572.60480601088250   -2.58938e-01   1.21074e-03 DIIS
   @RHF iter   3:  -572.65896112211772   -5.41551e-02   3.25064e-04 DIIS
   @RHF iter   4:  -572.66387637382741   -4.91525e-03   1.35847e-04 DIIS
   @RHF iter   5:  -572.66463948325440   -7.63109e-04   1.88708e-05 DIIS
   @RHF iter   6:  -572.66466471803722   -2.52348e-05   7.54236e-06 DIIS
   @RHF iter   7:  -572.66466833950062   -3.62146e-06   2.42969e-06 DIIS
   @RHF iter   8:  -572.66466895770350   -6.18203e-07   1.02188e-06 DIIS
   @RHF iter   9:  -572.66466909688950   -1.39186e-07   3.97974e-07 DIIS
   @RHF iter  10:  -572.66466911752161   -2.06321e-08   1.32313e-07 DIIS
   @RHF iter  11:  -572.66466912037527   -2.85365e-09   5.51416e-08 DIIS
   @RHF iter  12:  -572.66466912072167   -3.46404e-10   2.37939e-08 DIIS
   @RHF iter  13:  -572.66466912078431   -6.26414e-11   7.43055e-09 DIIS
   @RHF iter  14:  -572.66466912079761   -1.33014e-11   3.08388e-09 DIIS
   @RHF iter  15:  -572.66466912079829   -6.82121e-13   1.17936e-09 DIIS
   @RHF iter  16:  -572.66466912079682    1.47793e-12   5.18057e-10 DIIS
   @RHF iter  17:  -572.66466912079636    4.54747e-13   2.10322e-10 DIIS
   @RHF iter  18:  -572.66466912079943   -3.06954e-12   6.89472e-11 DIIS
  Energy and wave function converged.

  ==> Post-Iterations <==

    Orbital Energies [Eh]
    ---------------------

    Doubly Occupied:

       1A    -15.622798     2A    -15.528507     3A    -11.294091
       4A    -11.251247     5A    -11.239146     6A    -11.232983
       7A    -11.227421     8A    -11.225192     9A    -11.224657
      10A    -11.223372    11A    -11.221434    12A    -11.221159
      13A    -11.217981    14A    -11.211905    15A     -1.348373
      16A     -1.155015    17A     -1.153222    18A     -1.052645
      19A     -1.043025    20A     -1.008090    21A     -0.988847
      22A     -0.927604    23A     -0.856732    24A     -0.822547
      25A     -0.818446    26A     -0.789941    27A     -0.762619
      28A     -0.738067    29A     -0.688233    30A     -0.629234
      31A     -0.625683    32A     -0.621336    33A     -0.608531
      34A     -0.603303    35A     -0.584523    36A     -0.578115
      37A     -0.573428    38A     -0.561331    39A     -0.556456
      40A     -0.531209    41A     -0.510724    42A     -0.492083
      43A     -0.486194    44A     -0.480374    45A     -0.477065
      46A     -0.471690    47A     -0.410101    48A     -0.378067
      49A     -0.328194    50A     -0.318894    51A     -0.313423

    Virtual:

      52A      0.141461    53A      0.148383    54A      0.169984
      55A      0.180537    56A      0.190030    57A      0.197533
      58A      0.210583    59A      0.221615    60A      0.225529
      61A      0.227950    62A      0.242718    63A      0.256840
      64A      0.260095    65A      0.270181    66A      0.280990
      67A      0.284318    68A      0.288987    69A      0.296685
      70A      0.305520    71A      0.341899    72A      0.371306
      73A      0.383707    74A      0.389303    75A      0.396295
      76A      0.408300    77A      0.445273    78A      0.461075
      79A      0.475063    80A      0.482123    81A      0.486662
      82A      0.489842    83A      0.499455    84A      0.563509
      85A      0.599611    86A      0.602631    87A      0.619103
      88A      0.634709    89A      0.643346    90A      0.656479
      91A      0.663010    92A      0.682402    93A      0.688336
      94A      0.697241    95A      0.702609    96A      0.713861
      97A      0.721267    98A      0.740002    99A      0.743495
     100A      0.748706   101A      0.754387   102A      0.758751
     103A      0.761274   104A      0.780799   105A      0.786299
     106A      0.806094   107A      0.811325   108A      0.816943
     109A      0.833990   110A      0.839759   111A      0.856415
     112A      0.875294   113A      0.879871   114A      0.889434
     115A      0.894699   116A      0.898213   117A      0.908256
     118A      0.910814   119A      0.916527   120A      0.921934
     121A      0.932828   122A      0.936025   123A      0.944240
     124A      0.950105   125A      0.952782   126A      0.969354
     127A      0.975925   128A      0.984261   129A      0.997163
     130A      1.002781   131A      1.039264   132A      1.049409
     133A      1.052539   134A      1.068614   135A      1.080279
     136A      1.100196   137A      1.103099   138A      1.120009
     139A      1.146657   140A      1.151056   141A      1.169725
     142A      1.170214   143A      1.189161   144A      1.202161
     145A      1.210648   146A      1.238058   147A      1.246149
     148A      1.258418   149A      1.268920   150A      1.272019
     151A      1.301321   152A      1.312509   153A      1.317332
     154A      1.322248   155A      1.330325   156A      1.336798
     157A      1.345257   158A      1.356609   159A      1.414614
     160A      1.418043   161A      1.433646   162A      1.445419
     163A      1.451271   164A      1.508358   165A      1.518333
     166A      1.534046   167A      1.550654   168A      1.564527
     169A      1.575279   170A      1.615220   171A      1.636698
     172A      1.675119   173A      1.681286   174A      1.693308
     175A      1.711802   176A      1.746215   177A      1.749434
     178A      1.754953   179A      1.765018   180A      1.770559
     181A      1.774603   182A      1.798343   183A      1.821413
     184A      1.833389   185A      1.853897   186A      1.869625
     187A      1.885383   188A      1.886686   189A      1.896609
     190A      1.901961   191A      1.911677   192A      1.924355
     193A      1.930069   194A      1.932679   195A      1.941521
     196A      1.947041   197A      1.956487   198A      1.965377
     199A      1.976524   200A      1.984115   201A      1.992757
     202A      1.994740   203A      2.011009   204A      2.014177
     205A      2.018851   206A      2.033879   207A      2.039889
     208A      2.067477   209A      2.074206   210A      2.088075
     211A      2.095213   212A      2.107150   213A      2.121379
     214A      2.123582   215A      2.160103   216A      2.161214
     217A      2.176383   218A      2.187144   219A      2.190456
     220A      2.206532   221A      2.215859   222A      2.243484
     223A      2.272442   224A      2.273970   225A      2.290951
     226A      2.297781   227A      2.300816   228A      2.315120
     229A      2.318060   230A      2.343702   231A      2.358802
     232A      2.375951   233A      2.402182   234A      2.442960
     235A      2.459724   236A      2.480487   237A      2.493252
     238A      2.499936   239A      2.509075   240A      2.513723
     241A      2.559160   242A      2.573939   243A      2.602636
     244A      2.616056   245A      2.636491   246A      2.686069
     247A      2.736210   248A      2.757304   249A      2.763816
     250A      2.776093   251A      2.779540   252A      2.790689
     253A      2.804345   254A      2.814973   255A      2.829572
     256A      2.841596   257A      2.856239   258A      2.873067
     259A      2.893982   260A      2.897549   261A      2.917574
     262A      2.935588   263A      2.945654   264A      3.007681
     265A      3.022139   266A      3.037567   267A      3.048362
     268A      3.095244   269A      3.175777   270A      3.178628
     271A      3.233901   272A      3.270638   273A      3.330684
     274A      3.485804   275A      3.808287   276A      4.014707

    Final Occupation by Irrep:
              A
    DOCC [    51 ]

  @RHF Final Energy:  -572.66466912079943

   => Energetics <=

    Nuclear Repulsion Energy =            807.0343132511471822
    One-Electron Energy =               -2376.9274463045630910
    Two-Electron Energy =                 997.2284639326165916
    Total Energy =                       -572.6646691207994309

Computation Completed

Properties will be evaluated at   0.000000,   0.000000,   0.000000 [a0]

Properties computed using the SCF density matrix

  Nuclear Dipole Moment: [e a0]
     X:     5.6508      Y:    -6.1941      Z:     1.3132

  Electronic Dipole Moment: [e a0]
     X:    -5.6106      Y:     7.2099      Z:    -2.1296

  Dipole Moment: [e a0]
     X:     0.0402      Y:     1.0158      Z:    -0.8164     Total:     1.3038

  Dipole Moment: [D]
     X:     0.1022      Y:     2.5819      Z:    -2.0751     Total:     3.3140

*** tstop() called on ds3 at Mon Apr 27 16:20:19 2020
Module time:
	user time   =     296.42 seconds =       4.94 minutes
	system time =     125.22 seconds =       2.09 minutes
	total time  =        408 seconds =       6.80 minutes
Total time:
	user time   =     296.42 seconds =       4.94 minutes
	system time =     125.22 seconds =       2.09 minutes
	total time  =        408 seconds =       6.80 minutes
                                     G D M A

                                 by Anthony Stone

                           version 2.2.06, 22 June 2011

               Distributed Multipoles from Gaussian wavefunctions

Starting at 16:20:19 on 27 Apr 2020

Using SCF density matrix from file ./SSI/SSI-074PHE-083HIE-1-dimer.test.23906.fchk

                         Distributed Multipole Analysis

Standard DMA

Positions and radii in angstrom
Multipole moments in atomic units, ea_0^k for rank k

C          x =  4.410149  y = -0.141032  z =  2.644320 angstrom
           Maximum rank =  0   Radius =  0.650 angstrom
                   Q00  =  -0.200076

C          x =  1.028149  y =  0.025968  z =  0.982320 angstrom
           Maximum rank =  0   Radius =  0.650 angstrom
                   Q00  =  -0.078697

C          x =  1.312149  y =  0.745968  z = -0.157680 angstrom
           Maximum rank =  0   Radius =  0.650 angstrom
                   Q00  =  -0.001020

C          x =  2.029149  y = -0.267032  z =  1.886320 angstrom
           Maximum rank =  0   Radius =  0.650 angstrom
                   Q00  =  -0.080282

C          x =  3.326149  y =  0.138968  z =  1.639320 angstrom
           Maximum rank =  0   Radius =  0.650 angstrom
                   Q00  =  -0.098939

C          x =  2.581149  y =  1.165968  z = -0.420680 angstrom
           Maximum rank =  0   Radius =  0.650 angstrom
                   Q00  =  -0.075255

C          x =  3.603149  y =  0.870968  z =  0.487320 angstrom
           Maximum rank =  0   Radius =  0.650 angstrom
                   Q00  =  -0.051055

H          x =  0.011149  y = -0.251032  z =  1.208320 angstrom
           Maximum rank =  0   Radius =  0.325 angstrom
                   Q00  =   0.068459

H          x =  0.516149  y =  0.996968  z = -0.845680 angstrom
           Maximum rank =  0   Radius =  0.325 angstrom
                   Q00  =   0.053722

H          x =  1.789149  y = -0.798032  z =  2.796320 angstrom
           Maximum rank =  0   Radius =  0.325 angstrom
                   Q00  =   0.052335

H          x =  2.792149  y =  1.748968  z = -1.305680 angstrom
           Maximum rank =  0   Radius =  0.325 angstrom
                   Q00  =   0.055706

H          x =  5.364149  y = -0.212032  z =  2.117320 angstrom
           Maximum rank =  0   Radius =  0.325 angstrom
                   Q00  =   0.095527

H          x =  4.226149  y = -1.105032  z =  3.112320 angstrom
           Maximum rank =  0   Radius =  0.325 angstrom
                   Q00  =   0.097914

H          x =  4.606149  y =  1.225968  z =  0.297320 angstrom
           Maximum rank =  0   Radius =  0.325 angstrom
                   Q00  =   0.054239

H          x =  4.484430  y =  0.628915  z =  3.426410 angstrom
           Maximum rank =  0   Radius =  0.325 angstrom
                   Q00  =   0.103888

C          x = -1.411851  y = -1.729032  z = -0.680680 angstrom
           Maximum rank =  0   Radius =  0.650 angstrom
                   Q00  =  -0.028259

C          x = -2.190851  y = -2.967032  z = -1.106680 angstrom
           Maximum rank =  0   Radius =  0.650 angstrom
                   Q00  =  -0.220805

C          x = -2.174851  y = -0.456032  z = -0.908680 angstrom
           Maximum rank =  0   Radius =  0.650 angstrom
                   Q00  =   0.218867

C          x = -2.045851  y =  0.473968  z = -1.879680 angstrom
           Maximum rank =  0   Radius =  0.650 angstrom
                   Q00  =  -0.005683

C          x = -3.702851  y =  1.091968  z = -0.570680 angstrom
           Maximum rank =  0   Radius =  0.650 angstrom
                   Q00  =   0.468908

N          x = -3.234851  y = -0.063032  z = -0.114680 angstrom
           Maximum rank =  0   Radius =  0.650 angstrom
                   Q00  =  -0.792044

N          x = -2.993851  y =  1.434968  z = -1.626680 angstrom
           Maximum rank =  0   Radius =  0.650 angstrom
                   Q00  =  -0.479945

H          x = -1.196851  y = -1.825032  z =  0.382320 angstrom
           Maximum rank =  0   Radius =  0.325 angstrom
                   Q00  =   0.081064

H          x = -0.466851  y = -1.674032  z = -1.220680 angstrom
           Maximum rank =  0   Radius =  0.325 angstrom
                   Q00  =   0.065294

H          x = -3.114851  y = -3.016032  z = -0.528680 angstrom
           Maximum rank =  0   Radius =  0.325 angstrom
                   Q00  =   0.095080

H          x = -1.322851  y =  0.464968  z = -2.685680 angstrom
           Maximum rank =  0   Radius =  0.325 angstrom
                   Q00  =   0.105032

H          x = -4.520851  y =  1.663968  z = -0.145680 angstrom
           Maximum rank =  0   Radius =  0.325 angstrom
                   Q00  =   0.125049

H          x = -3.118851  y =  2.303968  z = -2.141680 angstrom
           Maximum rank =  0   Radius =  0.325 angstrom
                   Q00  =   0.217026

H          x = -1.577043  y = -3.856335  z = -0.900816 angstrom
           Maximum rank =  0   Radius =  0.325 angstrom
                   Q00  =   0.079014

H          x = -2.462901  y = -2.899200  z = -2.170347 angstrom
           Maximum rank =  0   Radius =  0.325 angstrom
                   Q00  =   0.074938

Total multipoles referred to origin at
           x =   0.000000,  y =    0.000000,  z =    0.000000 angstrom
                   Q00  =  -0.000000

Finished at 16:20:19 on 27 Apr 2020

  DMA results are available in the Python driver through the
	  variable('DMA DISTRIBUTED MULTIPOLES')
  and
	  variable('DMA TOTAL MULTIPOLES')
  commands.

    Psi4 stopped on: Monday, 27 April 2020 04:20PM
    Psi4 wall time for execution: 0:06:48.09

*** Psi4 exiting successfully. Buy a developer a beer!
