                               Psi4 1.3.2 release

  ==> Input File <==

--------------------------------------------------------------------------
import numpy as np
set {scf_type pk
basis cc-pvdz
d_convergence 10
gdma_switch   0
gdma_limit    0
gdma_origin   [ 0.0,  0.0,  0.0 ]
}
molecule test {
    units Angstrom
    0 1
    --
    0 1
    C                0.101230068270569     1.361006216763156     4.573079394480854
    C                0.912230068270569     2.137006216763157     0.925079394480855
    C                0.380230068270569     2.235006216763156     2.205079394480855
    C                1.764230068270569     1.088006216763157     0.603079394480855
    C                0.699230068270569     1.295006216763157     3.185079394480855
    C                2.083230068270569     0.135006216763156     1.573079394480855
    C                1.552230068270569     0.254006216763156     2.852079394480855
    O                2.280230068270569     0.979006216763156    -0.658920605519145
    H                0.656230068270569     2.871006216763156     0.177079394480855
    H               -0.304769931729431     3.042006216763157     2.426079394480855
    H                1.835230068270569     1.587006216763156    -1.271920605519145
    H                2.728230068270569    -0.692993783236844     1.322079394480855
    H                0.636230068270569     0.674006216763156     5.232079394480854
    H               -0.916769931729431     0.997006216763156     4.491079394480854
    H                1.790230068270569    -0.501993783236844     3.588079394480855
    H                0.088941068270569     2.357896216763157     5.037909394480854
    C               -0.410769931729431    -1.343993783236843    -4.395920605519145
    C               -1.299769931729431    -0.447993783236844    -0.831920605519145
    C               -2.229769931729431    -1.422993783236844    -0.520920605519145
    C               -0.709769931729431    -0.421993783236844    -2.085920605519145
    C               -1.039769931729431    -1.380993783236844    -3.032920605519145
    C               -2.570769931729431    -2.378993783236844    -1.465920605519145
    C               -1.981769931729431    -2.351993783236843    -2.718920605519145
    H               -1.033769931729431     0.294006216763156    -0.092920605519145
    H               -2.708769931729431    -1.407993783236844     0.446079394480855
    H                0.023230068270569     0.331006216763156    -2.315920605519145
    H               -3.300769931729431    -3.139993783236844    -1.225920605519145
    H               -0.325769931729431    -2.360993783236844    -4.783920605519145
    H                0.604230068270569    -0.952993783236844    -4.306920605519147
    H               -2.249769931729431    -3.104993783236844    -3.446920605519145
    H               -0.969919931729431    -0.718463783236844    -5.107300605519145

}
e, wfn = energy('scf', return_wfn=True)
gdma(wfn)
dmavals = variable('DMA DISTRIBUTED MULTIPOLES')
charges = np.array(dmavals)
print(charges)
np.save('SSI-047TYR-111PHE-1-dimer.npy', np.array(charges))--------------------------------------------------------------------------

*** tstart() called on ds3
*** at Tue Apr 28 00:04:33 2020

   => Loading Basis Set <=

    Name: CC-PVDZ
    Role: ORBITAL
    Keyword: BASIS
    atoms 1-7, 17-23  entry C          line   138 file /theoryfs2/ds/metcalf/miniconda2/envs/tf2gpu/share/psi4/basis/cc-pvdz.gbs
    atoms 8           entry O          line   198 file /theoryfs2/ds/metcalf/miniconda2/envs/tf2gpu/share/psi4/basis/cc-pvdz.gbs
    atoms 9-16, 24-31 entry H          line    22 file /theoryfs2/ds/metcalf/miniconda2/envs/tf2gpu/share/psi4/basis/cc-pvdz.gbs

         ---------------------------------------------------------
                                   SCF
               by Justin Turney, Rob Parrish, Andy Simmonett
                          and Daniel G. A. Smith
                              RHF Reference
                        1 Threads,    500 MiB Core
         ---------------------------------------------------------

  ==> Geometry <==

    Molecular point group: c1
    Full point group: C1

    Geometry (in Angstrom), charge = 0, multiplicity = 1:

       Center              X                  Y                   Z               Mass
    ------------   -----------------  -----------------  -----------------  -----------------
         C            0.101230068271     1.361006216763     4.573079394481    12.000000000000
         C            0.912230068271     2.137006216763     0.925079394481    12.000000000000
         C            0.380230068271     2.235006216763     2.205079394481    12.000000000000
         C            1.764230068271     1.088006216763     0.603079394481    12.000000000000
         C            0.699230068271     1.295006216763     3.185079394481    12.000000000000
         C            2.083230068271     0.135006216763     1.573079394481    12.000000000000
         C            1.552230068271     0.254006216763     2.852079394481    12.000000000000
         O            2.280230068271     0.979006216763    -0.658920605519    15.994914619570
         H            0.656230068271     2.871006216763     0.177079394481     1.007825032230
         H           -0.304769931729     3.042006216763     2.426079394481     1.007825032230
         H            1.835230068271     1.587006216763    -1.271920605519     1.007825032230
         H            2.728230068271    -0.692993783237     1.322079394481     1.007825032230
         H            0.636230068271     0.674006216763     5.232079394481     1.007825032230
         H           -0.916769931729     0.997006216763     4.491079394481     1.007825032230
         H            1.790230068271    -0.501993783237     3.588079394481     1.007825032230
         H            0.088941068271     2.357896216763     5.037909394481     1.007825032230
         C           -0.410769931729    -1.343993783237    -4.395920605519    12.000000000000
         C           -1.299769931729    -0.447993783237    -0.831920605519    12.000000000000
         C           -2.229769931729    -1.422993783237    -0.520920605519    12.000000000000
         C           -0.709769931729    -0.421993783237    -2.085920605519    12.000000000000
         C           -1.039769931729    -1.380993783237    -3.032920605519    12.000000000000
         C           -2.570769931729    -2.378993783237    -1.465920605519    12.000000000000
         C           -1.981769931729    -2.351993783237    -2.718920605519    12.000000000000
         H           -1.033769931729     0.294006216763    -0.092920605519     1.007825032230
         H           -2.708769931729    -1.407993783237     0.446079394481     1.007825032230
         H            0.023230068271     0.331006216763    -2.315920605519     1.007825032230
         H           -3.300769931729    -3.139993783237    -1.225920605519     1.007825032230
         H           -0.325769931729    -2.360993783237    -4.783920605519     1.007825032230
         H            0.604230068271    -0.952993783237    -4.306920605519     1.007825032230
         H           -2.249769931729    -3.104993783237    -3.446920605519     1.007825032230
         H           -0.969919931729    -0.718463783237    -5.107300605519     1.007825032230

  Running in c1 symmetry.

  Rotational constants: A =      0.03429  B =      0.00919  C =      0.00795 [cm^-1]
  Rotational constants: A =   1028.00748  B =    275.39212  C =    238.20423 [MHz]
  Nuclear repulsion =  884.046718582884296

  Charge       = 0
  Multiplicity = 1
  Electrons    = 108
  Nalpha       = 54
  Nbeta        = 54

  ==> Algorithm <==

  SCF Algorithm Type is PK.
  DIIS enabled.
  MOM disabled.
  Fractional occupation disabled.
  Guess Type is SAD.
  Energy threshold   = 1.00e-06
  Density threshold  = 1.00e-10
  Integral threshold = 0.00e+00

  ==> Primary Basis <==

  Basis Set: CC-PVDZ
    Blend: CC-PVDZ
    Number of shells: 138
    Number of basis function: 290
    Number of Cartesian functions: 305
    Spherical Harmonics?: true
    Max angular momentum: 2

  ==> Pre-Iterations <==

   -------------------------------------------------------
    Irrep   Nso     Nmo     Nalpha   Nbeta   Ndocc  Nsocc
   -------------------------------------------------------
     A        290     290       0       0       0       0
   -------------------------------------------------------
    Total     290     290      54      54      54       0
   -------------------------------------------------------

  ==> Integral Setup <==

  Using integral reordering PK algorithm.
  Sizing the integral batches needed.
  Building batch lookup table.
   Calculation information:
      Number of atoms:                  31
      Number of AO shells:             138
      Number of primitives:            410
      Number of atomic orbitals:       305
      Number of basis functions:       290

      Integral cutoff                 1.00e-12
      Number of threads:                 1

	Batch   1 pq = [       0,    9405] index = [             0,44231715] size =     44231715
	Batch   2 pq = [    9405,   13301] index = [      44231715,88464951] size =     44233236
	Batch   3 pq = [   13301,   16290] index = [      88464951,132690195] size =     44225244
	Batch   4 pq = [   16290,   18810] index = [     132690195,176917455] size =     44227260
	Batch   5 pq = [   18810,   21030] index = [     176917455,221140965] size =     44223510
	Batch   6 pq = [   21030,   23037] index = [     221140965,265363203] size =     44222238
	Batch   7 pq = [   23037,   24883] index = [     265363203,309594286] size =     44231083
	Batch   8 pq = [   24883,   26601] index = [     309594286,353819901] size =     44225615
	Batch   9 pq = [   26601,   28214] index = [     353819901,398029005] size =     44209104
	Batch  10 pq = [   28214,   29740] index = [     398029005,442248670] size =     44219665
	Batch  11 pq = [   29740,   31191] index = [     442248670,486454836] size =     44206166
	Batch  12 pq = [   31191,   32578] index = [     486454836,530679331] size =     44224495
	Batch  13 pq = [   32578,   33908] index = [     530679331,574893186] size =     44213855
	Batch  14 pq = [   33908,   35188] index = [     574893186,619115266] size =     44222080
	Batch  15 pq = [   35188,   36423] index = [     619115266,663335676] size =     44220410
	Batch  16 pq = [   36423,   37617] index = [     663335676,707538153] size =     44202477
	Batch  17 pq = [   37617,   38775] index = [     707538153,751769700] size =     44231547
	Batch  18 pq = [   38775,   39899] index = [     751769700,795985050] size =     44215350
	Batch  19 pq = [   39899,   40992] index = [     795985050,840192528] size =     44207478
	Batch  20 pq = [   40992,   42057] index = [     840192528,884416653] size =     44224125
	Batch  21 pq = [   42057,   42195] index = [     884416653,890230110] size =      5813457
  Task number: 81
  Buffer size: 11059200
  Buffer per thread: 2
  We computed 40996561 shell quartets total.
  Whereas there are 45998436 unique shell quartets.

  ==> DiskJK: Disk-Based J/K Matrices <==

    J tasked:                  Yes
    K tasked:                  Yes
    wK tasked:                  No
    Memory [MiB]:              375
    Schwarz Cutoff:          1E-12

    OpenMP threads:              1

  Minimum eigenvalue in the overlap matrix is 2.8509561505E-04.
  Using Symmetric Orthogonalization.

  SCF Guess: Superposition of Atomic Densities via on-the-fly atomic UHF.

  ==> Iterations <==

                        Total Energy        Delta E     RMS |[F,P]|

   @RHF iter SAD:  -613.28572852947457   -6.13286e+02   0.00000e+00
   @RHF iter   1:  -614.05705647744753   -7.71328e-01   2.39300e-03 DIIS
   @RHF iter   2:  -614.33552851885565   -2.78472e-01   1.00258e-03 DIIS
   @RHF iter   3:  -614.37842609077018   -4.28976e-02   2.35609e-04 DIIS
   @RHF iter   4:  -614.38203108332527   -3.60499e-03   9.11425e-05 DIIS
   @RHF iter   5:  -614.38243606650190   -4.04983e-04   1.73613e-05 DIIS
   @RHF iter   6:  -614.38245704636165   -2.09799e-05   5.79825e-06 DIIS
   @RHF iter   7:  -614.38245937470469   -2.32834e-06   1.65462e-06 DIIS
   @RHF iter   8:  -614.38245963605550   -2.61351e-07   6.33445e-07 DIIS
   @RHF iter   9:  -614.38245966916384   -3.31083e-08   2.08193e-07 DIIS
   @RHF iter  10:  -614.38245967332182   -4.15798e-09   6.31486e-08 DIIS
   @RHF iter  11:  -614.38245967391458   -5.92763e-10   2.83815e-08 DIIS
   @RHF iter  12:  -614.38245967405885   -1.44269e-10   1.61850e-08 DIIS
   @RHF iter  13:  -614.38245967411865   -5.97993e-11   6.45537e-09 DIIS
   @RHF iter  14:  -614.38245967412763   -8.98126e-12   2.02609e-09 DIIS
   @RHF iter  15:  -614.38245967413047   -2.84217e-12   6.42582e-10 DIIS
   @RHF iter  16:  -614.38245967412831    2.16005e-12   2.35286e-10 DIIS
   @RHF iter  17:  -614.38245967413138   -3.06954e-12   7.01369e-11 DIIS
  Energy and wave function converged.

  ==> Post-Iterations <==

    Orbital Energies [Eh]
    ---------------------

    Doubly Occupied:

       1A    -20.586445     2A    -11.300201     3A    -11.240579
       4A    -11.237650     5A    -11.235458     6A    -11.235112
       7A    -11.234833     8A    -11.231386     9A    -11.230172
      10A    -11.229618    11A    -11.227004    12A    -11.226557
      13A    -11.224785    14A    -11.224646    15A    -11.223893
      16A     -1.398365    17A     -1.153769    18A     -1.152572
      19A     -1.042500    20A     -1.038636    21A     -1.020103
      22A     -1.010093    23A     -0.928535    24A     -0.928024
      25A     -0.845069    26A     -0.822170    27A     -0.804297
      28A     -0.792621    29A     -0.731837    30A     -0.689307
      31A     -0.669330    32A     -0.642608    33A     -0.629539
      34A     -0.625497    35A     -0.610592    36A     -0.590448
      37A     -0.588387    38A     -0.577478    39A     -0.575749
      40A     -0.573027    41A     -0.564383    42A     -0.559265
      43A     -0.531426    44A     -0.528323    45A     -0.499076
      46A     -0.487412    47A     -0.485643    48A     -0.482497
      49A     -0.478011    50A     -0.466983    51A     -0.341212
      52A     -0.329430    53A     -0.319055    54A     -0.303587

    Virtual:

      55A      0.128385    56A      0.141591    57A      0.145160
      58A      0.152484    59A      0.166132    60A      0.183934
      61A      0.196780    62A      0.207849    63A      0.214643
      64A      0.219729    65A      0.236626    66A      0.255363
      67A      0.259141    68A      0.260654    69A      0.273234
      70A      0.275451    71A      0.281359    72A      0.292641
      73A      0.294891    74A      0.318150    75A      0.368306
      76A      0.372400    77A      0.373558    78A      0.386346
      79A      0.423231    80A      0.452438    81A      0.461032
      82A      0.470584    83A      0.483426    84A      0.485119
      85A      0.493120    86A      0.496236    87A      0.513326
      88A      0.563782    89A      0.598038    90A      0.614194
      91A      0.626361    92A      0.636061    93A      0.651812
      94A      0.656666    95A      0.671023    96A      0.678752
      97A      0.684195    98A      0.693035    99A      0.707577
     100A      0.716577   101A      0.721249   102A      0.729607
     103A      0.736937   104A      0.738040   105A      0.745207
     106A      0.749245   107A      0.754646   108A      0.765857
     109A      0.767739   110A      0.770126   111A      0.779799
     112A      0.782212   113A      0.785899   114A      0.793191
     115A      0.825930   116A      0.830322   117A      0.841772
     118A      0.847684   119A      0.862320   120A      0.867725
     121A      0.876081   122A      0.880402   123A      0.882831
     124A      0.887479   125A      0.891993   126A      0.896624
     127A      0.908076   128A      0.914947   129A      0.919461
     130A      0.933625   131A      0.938334   132A      0.940933
     133A      0.942400   134A      0.948419   135A      0.960312
     136A      0.973236   137A      1.004359   138A      1.008067
     139A      1.027025   140A      1.043278   141A      1.049169
     142A      1.090733   143A      1.123820   144A      1.129530
     145A      1.138306   146A      1.141735   147A      1.151492
     148A      1.153054   149A      1.163522   150A      1.180327
     151A      1.204785   152A      1.224382   153A      1.233314
     154A      1.243171   155A      1.252454   156A      1.256907
     157A      1.263605   158A      1.270643   159A      1.273270
     160A      1.291817   161A      1.300927   162A      1.311817
     163A      1.315053   164A      1.325385   165A      1.328097
     166A      1.338855   167A      1.353695   168A      1.359187
     169A      1.387701   170A      1.407915   171A      1.421340
     172A      1.479684   173A      1.496299   174A      1.502940
     175A      1.535230   176A      1.545386   177A      1.565641
     178A      1.568765   179A      1.610724   180A      1.624957
     181A      1.636715   182A      1.669811   183A      1.676663
     184A      1.697919   185A      1.708060   186A      1.732860
     187A      1.740428   188A      1.743061   189A      1.757433
     190A      1.768908   191A      1.790161   192A      1.795884
     193A      1.805089   194A      1.815454   195A      1.818566
     196A      1.866522   197A      1.877342   198A      1.885259
     199A      1.888096   200A      1.898782   201A      1.903519
     202A      1.911933   203A      1.914143   204A      1.921583
     205A      1.926371   206A      1.926901   207A      1.935889
     208A      1.942914   209A      1.952709   210A      1.956547
     211A      1.961560   212A      1.968295   213A      1.980455
     214A      1.991108   215A      1.996770   216A      2.007565
     217A      2.034188   218A      2.047697   219A      2.053619
     220A      2.068277   221A      2.072643   222A      2.078375
     223A      2.080369   224A      2.085073   225A      2.118472
     226A      2.123958   227A      2.147755   228A      2.155641
     229A      2.167497   230A      2.172199   231A      2.181970
     232A      2.186878   233A      2.200353   234A      2.206133
     235A      2.221488   236A      2.258622   237A      2.275538
     238A      2.284669   239A      2.289565   240A      2.295191
     241A      2.301891   242A      2.308561   243A      2.321377
     244A      2.342360   245A      2.363753   246A      2.379728
     247A      2.404607   248A      2.449482   249A      2.472222
     250A      2.478437   251A      2.481902   252A      2.494277
     253A      2.503360   254A      2.542348   255A      2.551152
     256A      2.558748   257A      2.616457   258A      2.631357
     259A      2.636743   260A      2.742237   261A      2.752394
     262A      2.765459   263A      2.767896   264A      2.770940
     265A      2.785621   266A      2.804045   267A      2.807399
     268A      2.836830   269A      2.848478   270A      2.852542
     271A      2.882415   272A      2.900816   273A      2.975239
     274A      2.997683   275A      3.009974   276A      3.026547
     277A      3.035960   278A      3.090480   279A      3.137456
     280A      3.169032   281A      3.222869   282A      3.255318
     283A      3.284981   284A      3.322947   285A      3.348979
     286A      3.574609   287A      3.672855   288A      3.965613
     289A      3.998639   290A      4.179046

    Final Occupation by Irrep:
              A
    DOCC [    54 ]

  @RHF Final Energy:  -614.38245967413138

   => Energetics <=

    Nuclear Repulsion Energy =            884.0467185828842958
    One-Electron Energy =               -2587.4479716907981128
    Two-Electron Energy =                1089.0187934337823208
    Total Energy =                       -614.3824596741314963

Computation Completed

Properties will be evaluated at   0.000000,   0.000000,   0.000000 [a0]

Properties computed using the SCF density matrix

  Nuclear Dipole Moment: [e a0]
     X:    -3.2212      Y:    -0.6763      Z:     0.1550

  Electronic Dipole Moment: [e a0]
     X:     2.8508      Y:     1.0348      Z:    -0.1320

  Dipole Moment: [e a0]
     X:    -0.3704      Y:     0.3584      Z:     0.0230     Total:     0.5159

  Dipole Moment: [D]
     X:    -0.9414      Y:     0.9110      Z:     0.0585     Total:     1.3114

*** tstop() called on ds3 at Tue Apr 28 00:20:11 2020
Module time:
	user time   =     365.94 seconds =       6.10 minutes
	system time =     130.50 seconds =       2.17 minutes
	total time  =        938 seconds =      15.63 minutes
Total time:
	user time   =     365.94 seconds =       6.10 minutes
	system time =     130.50 seconds =       2.17 minutes
	total time  =        938 seconds =      15.63 minutes
                                     G D M A

                                 by Anthony Stone

                           version 2.2.06, 22 June 2011

               Distributed Multipoles from Gaussian wavefunctions

Starting at 0:20:11 on 28 Apr 2020

Using SCF density matrix from file ./SSI/SSI-047TYR-111PHE-1-dimer.test.4811.fchk

                         Distributed Multipole Analysis

Standard DMA

Positions and radii in angstrom
Multipole moments in atomic units, ea_0^k for rank k

C          x =  0.101230  y =  1.361006  z =  4.573079 angstrom
           Maximum rank =  0   Radius =  0.650 angstrom
                   Q00  =  -0.204561

C          x =  0.912230  y =  2.137006  z =  0.925079 angstrom
           Maximum rank =  0   Radius =  0.650 angstrom
                   Q00  =  -0.202203

C          x =  0.380230  y =  2.235006  z =  2.205079 angstrom
           Maximum rank =  0   Radius =  0.650 angstrom
                   Q00  =  -0.024621

C          x =  1.764230  y =  1.088006  z =  0.603079 angstrom
           Maximum rank =  0   Radius =  0.650 angstrom
                   Q00  =   0.317770

C          x =  0.699230  y =  1.295006  z =  3.185079 angstrom
           Maximum rank =  0   Radius =  0.650 angstrom
                   Q00  =  -0.133266

C          x =  2.083230  y =  0.135006  z =  1.573079 angstrom
           Maximum rank =  0   Radius =  0.650 angstrom
                   Q00  =  -0.106564

C          x =  1.552230  y =  0.254006  z =  2.852079 angstrom
           Maximum rank =  0   Radius =  0.650 angstrom
                   Q00  =   0.040634

O          x =  2.280230  y =  0.979006  z = -0.658921 angstrom
           Maximum rank =  0   Radius =  0.650 angstrom
                   Q00  =  -0.672192

H          x =  0.656230  y =  2.871006  z =  0.177079 angstrom
           Maximum rank =  0   Radius =  0.325 angstrom
                   Q00  =   0.070937

H          x = -0.304770  y =  3.042006  z =  2.426079 angstrom
           Maximum rank =  0   Radius =  0.325 angstrom
                   Q00  =   0.067798

H          x =  1.835230  y =  1.587006  z = -1.271921 angstrom
           Maximum rank =  0   Radius =  0.325 angstrom
                   Q00  =   0.409193

H          x =  2.728230  y = -0.692994  z =  1.322079 angstrom
           Maximum rank =  0   Radius =  0.325 angstrom
                   Q00  =   0.083567

H          x =  0.636230  y =  0.674006  z =  5.232079 angstrom
           Maximum rank =  0   Radius =  0.325 angstrom
                   Q00  =   0.097025

H          x = -0.916770  y =  0.997006  z =  4.491079 angstrom
           Maximum rank =  0   Radius =  0.325 angstrom
                   Q00  =   0.099132

H          x =  1.790230  y = -0.501994  z =  3.588079 angstrom
           Maximum rank =  0   Radius =  0.325 angstrom
                   Q00  =   0.063427

H          x =  0.088941  y =  2.357896  z =  5.037909 angstrom
           Maximum rank =  0   Radius =  0.325 angstrom
                   Q00  =   0.100877

C          x = -0.410770  y = -1.343994  z = -4.395921 angstrom
           Maximum rank =  0   Radius =  0.650 angstrom
                   Q00  =  -0.196384

C          x = -1.299770  y = -0.447994  z = -0.831921 angstrom
           Maximum rank =  0   Radius =  0.650 angstrom
                   Q00  =  -0.048430

C          x = -2.229770  y = -1.422994  z = -0.520921 angstrom
           Maximum rank =  0   Radius =  0.650 angstrom
                   Q00  =  -0.085147

C          x = -0.709770  y = -0.421994  z = -2.085921 angstrom
           Maximum rank =  0   Radius =  0.650 angstrom
                   Q00  =  -0.073648

C          x = -1.039770  y = -1.380994  z = -3.032921 angstrom
           Maximum rank =  0   Radius =  0.650 angstrom
                   Q00  =  -0.106534

C          x = -2.570770  y = -2.378994  z = -1.465921 angstrom
           Maximum rank =  0   Radius =  0.650 angstrom
                   Q00  =  -0.077171

C          x = -1.981770  y = -2.351994  z = -2.718921 angstrom
           Maximum rank =  0   Radius =  0.650 angstrom
                   Q00  =   0.013202

H          x = -1.033770  y =  0.294006  z = -0.092921 angstrom
           Maximum rank =  0   Radius =  0.325 angstrom
                   Q00  =   0.072234

H          x = -2.708770  y = -1.407994  z =  0.446079 angstrom
           Maximum rank =  0   Radius =  0.325 angstrom
                   Q00  =   0.056796

H          x =  0.023230  y =  0.331006  z = -2.315921 angstrom
           Maximum rank =  0   Radius =  0.325 angstrom
                   Q00  =   0.024436

H          x = -3.300770  y = -3.139994  z = -1.225921 angstrom
           Maximum rank =  0   Radius =  0.325 angstrom
                   Q00  =   0.062040

H          x = -0.325770  y = -2.360994  z = -4.783921 angstrom
           Maximum rank =  0   Radius =  0.325 angstrom
                   Q00  =   0.098687

H          x =  0.604230  y = -0.952994  z = -4.306921 angstrom
           Maximum rank =  0   Radius =  0.325 angstrom
                   Q00  =   0.096475

H          x = -2.249770  y = -3.104994  z = -3.446921 angstrom
           Maximum rank =  0   Radius =  0.325 angstrom
                   Q00  =   0.053626

H          x = -0.969920  y = -0.718464  z = -5.107301 angstrom
           Maximum rank =  0   Radius =  0.325 angstrom
                   Q00  =   0.102863

Total multipoles referred to origin at
           x =   0.000000,  y =    0.000000,  z =    0.000000 angstrom
                   Q00  =  -0.000000

Finished at 0:20:11 on 28 Apr 2020

  DMA results are available in the Python driver through the
	  variable('DMA DISTRIBUTED MULTIPOLES')
  and
	  variable('DMA TOTAL MULTIPOLES')
  commands.

    Psi4 stopped on: Tuesday, 28 April 2020 12:20AM
    Psi4 wall time for execution: 0:15:37.70

*** Psi4 exiting successfully. Buy a developer a beer!
