                               Psi4 1.3.2 release

  ==> Input File <==

--------------------------------------------------------------------------
import numpy as np
set {scf_type pk
basis cc-pvdz
d_convergence 10
gdma_switch   0
gdma_limit    0
gdma_origin   [ 0.0,  0.0,  0.0 ]
}
molecule test {
    units Angstrom
    0 1
    --
    0 1
    C               -2.762921299827726    -1.032614344893812    -2.243444769148003
    C                0.078078700172274     1.138385655106188     0.193555230851997
    C                0.487078700172274     0.676385655106188    -1.039444769148003
    C               -1.193921299827726     0.882385655106188     0.607555230851997
    C               -0.426921299827726     0.004385655106188    -1.840444769148003
    C               -2.082921299827726     0.152385655106188    -0.152444769148003
    C               -1.744921299827726    -0.256614344893812    -1.412444769148003
    H                0.758078700172275     1.692385655106188     0.827555230851997
    H                1.494078700172274     0.861385655106188    -1.388444769148003
    H               -1.518921299827726     1.234385655106188     1.565555230851997
    H               -0.090921299827726    -0.311614344893812    -2.813444769148003
    H               -3.040921299827725    -0.109614344893812     0.259555230851997
    H               -3.754921299827726    -0.609614344893812    -2.080444769148003
    H               -2.775921299827726    -2.058614344893812    -1.885444769148003
    H               -2.547471299827726    -1.038374344893812    -3.322124769148003
    C                3.065078700172274    -0.241614344893812     2.102555230851997
    C                3.814078700172274    -0.989614344893812     3.197555230851997
    H                2.048078700172274    -0.014614344893812     2.420555230851997
    H                3.584078700172275     0.688385655106188     1.873555230851997
    H                3.027078700172275    -0.845614344893812     1.201555230851997
    H                4.841078700172274    -1.164614344893812     2.874555230851997
    H                3.302873700172274    -1.948764344893812     3.366985230851997
    H                3.809742700172274    -0.345684344893812     4.089375230851998

}
e, wfn = energy('scf', return_wfn=True)
gdma(wfn)
dmavals = variable('DMA DISTRIBUTED MULTIPOLES')
charges = np.array(dmavals)
print(charges)
np.save('SSI-008PHE-042LEU-1-dimer.npy', np.array(charges))--------------------------------------------------------------------------

*** tstart() called on ds3
*** at Mon Apr 27 08:53:32 2020

   => Loading Basis Set <=

    Name: CC-PVDZ
    Role: ORBITAL
    Keyword: BASIS
    atoms 1-7, 16-17  entry C          line   138 file /theoryfs2/ds/metcalf/miniconda2/envs/tf2gpu/share/psi4/basis/cc-pvdz.gbs
    atoms 8-15, 18-23 entry H          line    22 file /theoryfs2/ds/metcalf/miniconda2/envs/tf2gpu/share/psi4/basis/cc-pvdz.gbs

         ---------------------------------------------------------
                                   SCF
               by Justin Turney, Rob Parrish, Andy Simmonett
                          and Daniel G. A. Smith
                              RHF Reference
                        1 Threads,    500 MiB Core
         ---------------------------------------------------------

  ==> Geometry <==

    Molecular point group: c1
    Full point group: C1

    Geometry (in Angstrom), charge = 0, multiplicity = 1:

       Center              X                  Y                   Z               Mass
    ------------   -----------------  -----------------  -----------------  -----------------
         C           -2.762921299828    -1.032614344894    -2.243444769148    12.000000000000
         C            0.078078700172     1.138385655106     0.193555230852    12.000000000000
         C            0.487078700172     0.676385655106    -1.039444769148    12.000000000000
         C           -1.193921299828     0.882385655106     0.607555230852    12.000000000000
         C           -0.426921299828     0.004385655106    -1.840444769148    12.000000000000
         C           -2.082921299828     0.152385655106    -0.152444769148    12.000000000000
         C           -1.744921299828    -0.256614344894    -1.412444769148    12.000000000000
         H            0.758078700172     1.692385655106     0.827555230852     1.007825032230
         H            1.494078700172     0.861385655106    -1.388444769148     1.007825032230
         H           -1.518921299828     1.234385655106     1.565555230852     1.007825032230
         H           -0.090921299828    -0.311614344894    -2.813444769148     1.007825032230
         H           -3.040921299828    -0.109614344894     0.259555230852     1.007825032230
         H           -3.754921299828    -0.609614344894    -2.080444769148     1.007825032230
         H           -2.775921299828    -2.058614344894    -1.885444769148     1.007825032230
         H           -2.547471299828    -1.038374344894    -3.322124769148     1.007825032230
         C            3.065078700172    -0.241614344894     2.102555230852    12.000000000000
         C            3.814078700172    -0.989614344894     3.197555230852    12.000000000000
         H            2.048078700172    -0.014614344894     2.420555230852     1.007825032230
         H            3.584078700172     0.688385655106     1.873555230852     1.007825032230
         H            3.027078700172    -0.845614344894     1.201555230852     1.007825032230
         H            4.841078700172    -1.164614344894     2.874555230852     1.007825032230
         H            3.302873700172    -1.948764344894     3.366985230852     1.007825032230
         H            3.809742700172    -0.345684344894     4.089375230852     1.007825032230

  Running in c1 symmetry.

  Rotational constants: A =      0.10326  B =      0.01707  C =      0.01667 [cm^-1]
  Rotational constants: A =   3095.70553  B =    511.60781  C =    499.75644 [MHz]
  Nuclear repulsion =  396.842689389068084

  Charge       = 0
  Multiplicity = 1
  Electrons    = 68
  Nalpha       = 34
  Nbeta        = 34

  ==> Algorithm <==

  SCF Algorithm Type is PK.
  DIIS enabled.
  MOM disabled.
  Fractional occupation disabled.
  Guess Type is SAD.
  Energy threshold   = 1.00e-06
  Density threshold  = 1.00e-10
  Integral threshold = 0.00e+00

  ==> Primary Basis <==

  Basis Set: CC-PVDZ
    Blend: CC-PVDZ
    Number of shells: 96
    Number of basis function: 196
    Number of Cartesian functions: 205
    Spherical Harmonics?: true
    Max angular momentum: 2

  ==> Pre-Iterations <==

   -------------------------------------------------------
    Irrep   Nso     Nmo     Nalpha   Nbeta   Ndocc  Nsocc
   -------------------------------------------------------
     A        196     196       0       0       0       0
   -------------------------------------------------------
    Total     196     196      34      34      34       0
   -------------------------------------------------------

  ==> Integral Setup <==

  Using integral reordering PK algorithm.
  Sizing the integral batches needed.
  Building batch lookup table.
   Calculation information:
      Number of atoms:                  23
      Number of AO shells:              96
      Number of primitives:            268
      Number of atomic orbitals:       205
      Number of basis functions:       196

      Integral cutoff                 1.00e-12
      Number of threads:                 1

	Batch   1 pq = [       0,    9405] index = [             0,44231715] size =     44231715
	Batch   2 pq = [    9405,   13301] index = [      44231715,88464951] size =     44233236
	Batch   3 pq = [   13301,   16290] index = [      88464951,132690195] size =     44225244
	Batch   4 pq = [   16290,   18810] index = [     132690195,176917455] size =     44227260
	Batch   5 pq = [   18810,   19306] index = [     176917455,186370471] size =      9453016
  Task number: 17
  Buffer size: 11059200
  Buffer per thread: 2
  We computed 8148169 shell quartets total.
  Whereas there are 10841496 unique shell quartets.

  ==> DiskJK: Disk-Based J/K Matrices <==

    J tasked:                  Yes
    K tasked:                  Yes
    wK tasked:                  No
    Memory [MiB]:              375
    Schwarz Cutoff:          1E-12

    OpenMP threads:              1

  Minimum eigenvalue in the overlap matrix is 2.9061870221E-04.
  Using Symmetric Orthogonalization.

  SCF Guess: Superposition of Atomic Densities via on-the-fly atomic UHF.

  ==> Iterations <==

                        Total Energy        Delta E     RMS |[F,P]|

   @RHF iter SAD:  -347.97351405624761   -3.47974e+02   0.00000e+00
   @RHF iter   1:  -348.75986145072682   -7.86347e-01   2.93513e-03 DIIS
   @RHF iter   2:  -348.95569686916264   -1.95835e-01   1.22801e-03 DIIS
   @RHF iter   3:  -348.98699589204909   -3.12990e-02   2.58860e-04 DIIS
   @RHF iter   4:  -348.98948664541291   -2.49075e-03   4.95479e-05 DIIS
   @RHF iter   5:  -348.98955538685794   -6.87414e-05   1.56214e-05 DIIS
   @RHF iter   6:  -348.98956192105425   -6.53420e-06   4.24872e-06 DIIS
   @RHF iter   7:  -348.98956245612180   -5.35068e-07   1.33769e-06 DIIS
   @RHF iter   8:  -348.98956252544156   -6.93198e-08   3.96776e-07 DIIS
   @RHF iter   9:  -348.98956254029213   -1.48506e-08   1.95584e-07 DIIS
   @RHF iter  10:  -348.98956254408893   -3.79680e-09   9.15156e-08 DIIS
   @RHF iter  11:  -348.98956254512171   -1.03279e-09   3.24491e-08 DIIS
   @RHF iter  12:  -348.98956254523142   -1.09708e-10   1.48809e-08 DIIS
   @RHF iter  13:  -348.98956254524279   -1.13687e-11   3.73278e-09 DIIS
   @RHF iter  14:  -348.98956254524410   -1.30740e-12   9.89145e-10 DIIS
   @RHF iter  15:  -348.98956254524489   -7.95808e-13   4.82400e-10 DIIS
   @RHF iter  16:  -348.98956254524239    2.50111e-12   2.29917e-10 DIIS
   @RHF iter  17:  -348.98956254523989    2.50111e-12   8.47658e-11 DIIS
  Energy and wave function converged.

  ==> Post-Iterations <==

    Orbital Energies [Eh]
    ---------------------

    Doubly Occupied:

       1A    -11.240400     2A    -11.231734     3A    -11.231621
       4A    -11.229563     5A    -11.226228     6A    -11.224174
       7A    -11.223025     8A    -11.217228     9A    -11.212094
      10A     -1.158067    11A     -1.045694    12A     -1.018698
      13A     -1.011995    14A     -0.933720    15A     -0.831951
      16A     -0.824273    17A     -0.797604    18A     -0.693704
      19A     -0.632776    20A     -0.626200    21A     -0.600052
      22A     -0.597725    23A     -0.580342    24A     -0.575640
      25A     -0.563213    26A     -0.539149    27A     -0.497019
      28A     -0.491520    29A     -0.484475    30A     -0.483340
      31A     -0.481231    32A     -0.478104    33A     -0.331989
      34A     -0.323581

    Virtual:

      35A      0.139346    36A      0.145461    37A      0.176602
      38A      0.190896    39A      0.202783    40A      0.215020
      41A      0.234802    42A      0.243155    43A      0.254217
      44A      0.264996    45A      0.267191    46A      0.279144
      47A      0.282330    48A      0.284882    49A      0.294963
      50A      0.306158    51A      0.372210    52A      0.374617
      53A      0.396518    54A      0.462163    55A      0.468689
      56A      0.477943    57A      0.497959    58A      0.554165
      59A      0.588911    60A      0.602358    61A      0.609567
      62A      0.621375    63A      0.628907    64A      0.669538
      65A      0.673670    66A      0.692326    67A      0.699120
      68A      0.708767    69A      0.720479    70A      0.733866
      71A      0.742801    72A      0.751647    73A      0.761493
      74A      0.765926    75A      0.793052    76A      0.802406
      77A      0.829874    78A      0.845926    79A      0.863207
      80A      0.867952    81A      0.882821    82A      0.893929
      83A      0.895738    84A      0.896290    85A      0.898325
      86A      0.905051    87A      0.911687    88A      0.919093
      89A      0.929715    90A      0.938731    91A      0.942479
      92A      0.960463    93A      0.982433    94A      1.004487
      95A      1.014617    96A      1.047163    97A      1.121897
      98A      1.127573    99A      1.136571   100A      1.147744
     101A      1.155532   102A      1.166160   103A      1.196496
     104A      1.222312   105A      1.242500   106A      1.244925
     107A      1.255234   108A      1.275249   109A      1.294766
     110A      1.317106   111A      1.325477   112A      1.347413
     113A      1.416016   114A      1.481014   115A      1.489865
     116A      1.511986   117A      1.540629   118A      1.566656
     119A      1.577381   120A      1.596336   121A      1.651568
     122A      1.670819   123A      1.694337   124A      1.697046
     125A      1.743541   126A      1.747707   127A      1.775078
     128A      1.795514   129A      1.820455   130A      1.848569
     131A      1.856268   132A      1.868078   133A      1.881801
     134A      1.896966   135A      1.910481   136A      1.915530
     137A      1.920880   138A      1.934081   139A      1.945315
     140A      1.947275   141A      1.953717   142A      1.958242
     143A      1.963212   144A      1.971315   145A      1.981089
     146A      1.985245   147A      1.998345   148A      2.013246
     149A      2.054230   150A      2.066645   151A      2.094244
     152A      2.108704   153A      2.115365   154A      2.124863
     155A      2.149208   156A      2.170176   157A      2.180782
     158A      2.190510   159A      2.204715   160A      2.269781
     161A      2.273454   162A      2.286815   163A      2.291545
     164A      2.306925   165A      2.326733   166A      2.340727
     167A      2.348516   168A      2.460290   169A      2.463529
     170A      2.464909   171A      2.467661   172A      2.494525
     173A      2.560377   174A      2.572237   175A      2.582383
     176A      2.641784   177A      2.742253   178A      2.752119
     179A      2.768100   180A      2.773327   181A      2.796910
     182A      2.801191   183A      2.833280   184A      2.835754
     185A      2.846088   186A      2.852578   187A      2.868599
     188A      2.947900   189A      2.965061   190A      3.006138
     191A      3.025303   192A      3.054819   193A      3.176992
     194A      3.229905   195A      3.325628   196A      3.999328

    Final Occupation by Irrep:
              A
    DOCC [    34 ]

  @RHF Final Energy:  -348.98956254523989

   => Energetics <=

    Nuclear Repulsion Energy =            396.8426893890680844
    One-Electron Energy =               -1256.3882434744866714
    Two-Electron Energy =                 510.5559915401787521
    Total Energy =                       -348.9895625452398917

Computation Completed

Properties will be evaluated at   0.000000,   0.000000,   0.000000 [a0]

Properties computed using the SCF density matrix

  Nuclear Dipole Moment: [e a0]
     X:     8.5647      Y:    -3.7223      Z:     6.5523

  Electronic Dipole Moment: [e a0]
     X:    -8.6716      Y:     3.6267      Z:    -6.6274

  Dipole Moment: [e a0]
     X:    -0.1069      Y:    -0.0956      Z:    -0.0751     Total:     0.1619

  Dipole Moment: [D]
     X:    -0.2717      Y:    -0.2430      Z:    -0.1908     Total:     0.4114

*** tstop() called on ds3 at Mon Apr 27 08:55:40 2020
Module time:
	user time   =      57.78 seconds =       0.96 minutes
	system time =      25.94 seconds =       0.43 minutes
	total time  =        128 seconds =       2.13 minutes
Total time:
	user time   =      57.78 seconds =       0.96 minutes
	system time =      25.94 seconds =       0.43 minutes
	total time  =        128 seconds =       2.13 minutes
                                     G D M A

                                 by Anthony Stone

                           version 2.2.06, 22 June 2011

               Distributed Multipoles from Gaussian wavefunctions

Starting at 8:55:40 on 27 Apr 2020

Using SCF density matrix from file ./SSI/SSI-008PHE-042LEU-1-dimer.test.1234.fchk

                         Distributed Multipole Analysis

Standard DMA

Positions and radii in angstrom
Multipole moments in atomic units, ea_0^k for rank k

C          x = -2.762921  y = -1.032614  z = -2.243445 angstrom
           Maximum rank =  0   Radius =  0.650 angstrom
                   Q00  =  -0.213768

C          x =  0.078079  y =  1.138386  z =  0.193555 angstrom
           Maximum rank =  0   Radius =  0.650 angstrom
                   Q00  =  -0.085811

C          x =  0.487079  y =  0.676386  z = -1.039445 angstrom
           Maximum rank =  0   Radius =  0.650 angstrom
                   Q00  =  -0.085978

C          x = -1.193921  y =  0.882386  z =  0.607555 angstrom
           Maximum rank =  0   Radius =  0.650 angstrom
                   Q00  =   0.035993

C          x = -0.426921  y =  0.004386  z = -1.840445 angstrom
           Maximum rank =  0   Radius =  0.650 angstrom
                   Q00  =  -0.067440

C          x = -2.082921  y =  0.152386  z = -0.152445 angstrom
           Maximum rank =  0   Radius =  0.650 angstrom
                   Q00  =  -0.083095

C          x = -1.744921  y = -0.256614  z = -1.412445 angstrom
           Maximum rank =  0   Radius =  0.650 angstrom
                   Q00  =  -0.094148

H          x =  0.758079  y =  1.692386  z =  0.827555 angstrom
           Maximum rank =  0   Radius =  0.325 angstrom
                   Q00  =   0.059739

H          x =  1.494079  y =  0.861386  z = -1.388445 angstrom
           Maximum rank =  0   Radius =  0.325 angstrom
                   Q00  =   0.064563

H          x = -1.518921  y =  1.234386  z =  1.565555 angstrom
           Maximum rank =  0   Radius =  0.325 angstrom
                   Q00  =   0.054788

H          x = -0.090921  y = -0.311614  z = -2.813445 angstrom
           Maximum rank =  0   Radius =  0.325 angstrom
                   Q00  =   0.053544

H          x = -3.040921  y = -0.109614  z =  0.259555 angstrom
           Maximum rank =  0   Radius =  0.325 angstrom
                   Q00  =   0.050795

H          x = -3.754921  y = -0.609614  z = -2.080445 angstrom
           Maximum rank =  0   Radius =  0.325 angstrom
                   Q00  =   0.101061

H          x = -2.775921  y = -2.058614  z = -1.885445 angstrom
           Maximum rank =  0   Radius =  0.325 angstrom
                   Q00  =   0.105650

H          x = -2.547471  y = -1.038374  z = -3.322125 angstrom
           Maximum rank =  0   Radius =  0.325 angstrom
                   Q00  =   0.103425

C          x =  3.065079  y = -0.241614  z =  2.102555 angstrom
           Maximum rank =  0   Radius =  0.650 angstrom
                   Q00  =  -0.237317

C          x =  3.814079  y = -0.989614  z =  3.197555 angstrom
           Maximum rank =  0   Radius =  0.650 angstrom
                   Q00  =  -0.228179

H          x =  2.048079  y = -0.014614  z =  2.420555 angstrom
           Maximum rank =  0   Radius =  0.325 angstrom
                   Q00  =   0.080315

H          x =  3.584079  y =  0.688386  z =  1.873555 angstrom
           Maximum rank =  0   Radius =  0.325 angstrom
                   Q00  =   0.071544

H          x =  3.027079  y = -0.845614  z =  1.201555 angstrom
           Maximum rank =  0   Radius =  0.325 angstrom
                   Q00  =   0.080318

H          x =  4.841079  y = -1.164614  z =  2.874555 angstrom
           Maximum rank =  0   Radius =  0.325 angstrom
                   Q00  =   0.079029

H          x =  3.302874  y = -1.948764  z =  3.366985 angstrom
           Maximum rank =  0   Radius =  0.325 angstrom
                   Q00  =   0.079336

H          x =  3.809743  y = -0.345684  z =  4.089375 angstrom
           Maximum rank =  0   Radius =  0.325 angstrom
                   Q00  =   0.075634

Total multipoles referred to origin at
           x =   0.000000,  y =    0.000000,  z =    0.000000 angstrom
                   Q00  =  -0.000000

Finished at 8:55:40 on 27 Apr 2020

  DMA results are available in the Python driver through the
	  variable('DMA DISTRIBUTED MULTIPOLES')
  and
	  variable('DMA TOTAL MULTIPOLES')
  commands.

    Psi4 stopped on: Monday, 27 April 2020 08:55AM
    Psi4 wall time for execution: 0:02:08.37

*** Psi4 exiting successfully. Buy a developer a beer!
