                               Psi4 1.3.2 release

  ==> Input File <==

--------------------------------------------------------------------------
import numpy as np
set {scf_type pk
basis cc-pvdz
d_convergence 10
gdma_switch   0
gdma_limit    0
gdma_origin   [ 0.0,  0.0,  0.0 ]
}
molecule test {
    units Angstrom
    0 1
    --
    0 1
    C               -0.780937549044169     0.621776391364753    -1.342832773502305
    C               -2.291937549044169     0.899776391364753    -1.426832773502305
    C               -0.137937549044169     0.100776391364753    -2.605832773502305
    C               -0.107937549044169    -1.272223608635247    -2.869832773502305
    C                0.462062450955831     0.971776391364753    -3.522832773502305
    C                0.511062450955831    -1.768223608635247    -4.018832773502305
    C                1.091062450955831     0.476776391364753    -4.679832773502304
    C                1.109062450955831    -0.896223608635247    -4.928832773502304
    O                1.701062450955831    -1.384223608635247    -6.067832773502305
    H               -0.283937549044169     1.541776391364753    -1.050832773502305
    H               -0.604937549044169    -0.101223608635247    -0.546832773502305
    H               -2.556937549044169     1.358776391364753    -0.477832773502305
    H               -0.568937549044169    -1.962223608635247    -2.174832773502305
    H                0.459062450955831     2.034776391364753    -3.334832773502305
    H                0.518062450955831    -2.831223608635247    -4.209832773502305
    H                1.560062450955831     1.153776391364753    -5.378832773502304
    H                1.649062450955831    -2.345223608635247    -6.123832773502304
    H               -2.878697549044169    -0.020558608635247    -1.563572773502305
    H               -2.529447549044169     1.664283391364753    -2.181232773502305
    C               -1.180937549044169     0.647776391364753     2.290167226497695
    C               -2.281937549044169     1.689776391364753     2.521167226497695
    C               -0.383937549044169     0.302776391364753     3.524167226497695
    C                0.742062450955831     1.057776391364753     3.853167226497695
    C               -0.744937549044169    -0.780223608635247     4.337167226497696
    C                1.520062450955831     0.734776391364753     4.963167226497695
    C                0.028062450955831    -1.115223608635247     5.448167226497695
    C                1.164062450955831    -0.355223608635247     5.765167226497695
    H               -1.627937549044169    -0.270223608635247     1.909167226497695
    H               -0.496937549044169     1.007776391364753     1.523167226497695
    H               -2.905937549044169     1.740776391364753     1.630167226497695
    H                1.028062450955831     1.893776391364753     3.231167226497695
    H               -1.615937549044169    -1.372223608635247     4.097167226497695
    H                2.398062450955832     1.318776391364753     5.202167226497695
    H               -0.248937549044169    -1.956223608635247     6.067167226497695
    H                1.761062450955831    -0.613223608635247     6.626167226497696
    H               -1.849452549044169     2.684340391364753     2.705007226497695
    H               -2.926026549044169     1.367731391364753     3.352697226497695

}
e, wfn = energy('scf', return_wfn=True)
gdma(wfn)
dmavals = variable('DMA DISTRIBUTED MULTIPOLES')
charges = np.array(dmavals)
print(charges)
np.save('SSI-040TYR-082PHE-1-dimer.npy', np.array(charges))--------------------------------------------------------------------------

*** tstart() called on ds3
*** at Tue Apr 28 09:41:45 2020

   => Loading Basis Set <=

    Name: CC-PVDZ
    Role: ORBITAL
    Keyword: BASIS
    atoms 1-8, 20-27   entry C          line   138 file /theoryfs2/ds/metcalf/miniconda2/envs/tf2gpu/share/psi4/basis/cc-pvdz.gbs
    atoms 9            entry O          line   198 file /theoryfs2/ds/metcalf/miniconda2/envs/tf2gpu/share/psi4/basis/cc-pvdz.gbs
    atoms 10-19, 28-37 entry H          line    22 file /theoryfs2/ds/metcalf/miniconda2/envs/tf2gpu/share/psi4/basis/cc-pvdz.gbs

         ---------------------------------------------------------
                                   SCF
               by Justin Turney, Rob Parrish, Andy Simmonett
                          and Daniel G. A. Smith
                              RHF Reference
                        1 Threads,    500 MiB Core
         ---------------------------------------------------------

  ==> Geometry <==

    Molecular point group: c1
    Full point group: C1

    Geometry (in Angstrom), charge = 0, multiplicity = 1:

       Center              X                  Y                   Z               Mass
    ------------   -----------------  -----------------  -----------------  -----------------
         C           -0.780937549044     0.621776391365    -1.342832773502    12.000000000000
         C           -2.291937549044     0.899776391365    -1.426832773502    12.000000000000
         C           -0.137937549044     0.100776391365    -2.605832773502    12.000000000000
         C           -0.107937549044    -1.272223608635    -2.869832773502    12.000000000000
         C            0.462062450956     0.971776391365    -3.522832773502    12.000000000000
         C            0.511062450956    -1.768223608635    -4.018832773502    12.000000000000
         C            1.091062450956     0.476776391365    -4.679832773502    12.000000000000
         C            1.109062450956    -0.896223608635    -4.928832773502    12.000000000000
         O            1.701062450956    -1.384223608635    -6.067832773502    15.994914619570
         H           -0.283937549044     1.541776391365    -1.050832773502     1.007825032230
         H           -0.604937549044    -0.101223608635    -0.546832773502     1.007825032230
         H           -2.556937549044     1.358776391365    -0.477832773502     1.007825032230
         H           -0.568937549044    -1.962223608635    -2.174832773502     1.007825032230
         H            0.459062450956     2.034776391365    -3.334832773502     1.007825032230
         H            0.518062450956    -2.831223608635    -4.209832773502     1.007825032230
         H            1.560062450956     1.153776391365    -5.378832773502     1.007825032230
         H            1.649062450956    -2.345223608635    -6.123832773502     1.007825032230
         H           -2.878697549044    -0.020558608635    -1.563572773502     1.007825032230
         H           -2.529447549044     1.664283391365    -2.181232773502     1.007825032230
         C           -1.180937549044     0.647776391365     2.290167226498    12.000000000000
         C           -2.281937549044     1.689776391365     2.521167226498    12.000000000000
         C           -0.383937549044     0.302776391365     3.524167226498    12.000000000000
         C            0.742062450956     1.057776391365     3.853167226498    12.000000000000
         C           -0.744937549044    -0.780223608635     4.337167226498    12.000000000000
         C            1.520062450956     0.734776391365     4.963167226498    12.000000000000
         C            0.028062450956    -1.115223608635     5.448167226498    12.000000000000
         C            1.164062450956    -0.355223608635     5.765167226498    12.000000000000
         H           -1.627937549044    -0.270223608635     1.909167226498     1.007825032230
         H           -0.496937549044     1.007776391365     1.523167226498     1.007825032230
         H           -2.905937549044     1.740776391365     1.630167226498     1.007825032230
         H            1.028062450956     1.893776391365     3.231167226498     1.007825032230
         H           -1.615937549044    -1.372223608635     4.097167226498     1.007825032230
         H            2.398062450956     1.318776391365     5.202167226498     1.007825032230
         H           -0.248937549044    -1.956223608635     6.067167226498     1.007825032230
         H            1.761062450956    -0.613223608635     6.626167226498     1.007825032230
         H           -1.849452549044     2.684340391365     2.705007226498     1.007825032230
         H           -2.926026549044     1.367731391365     3.352697226498     1.007825032230

  Running in c1 symmetry.

  Rotational constants: A =      0.02912  B =      0.00428  C =      0.00404 [cm^-1]
  Rotational constants: A =    872.97582  B =    128.26335  C =    121.05087 [MHz]
  Nuclear repulsion = 1035.917069992510733

  Charge       = 0
  Multiplicity = 1
  Electrons    = 124
  Nalpha       = 62
  Nbeta        = 62

  ==> Algorithm <==

  SCF Algorithm Type is PK.
  DIIS enabled.
  MOM disabled.
  Fractional occupation disabled.
  Guess Type is SAD.
  Energy threshold   = 1.00e-06
  Density threshold  = 1.00e-10
  Integral threshold = 0.00e+00

  ==> Primary Basis <==

  Basis Set: CC-PVDZ
    Blend: CC-PVDZ
    Number of shells: 162
    Number of basis function: 338
    Number of Cartesian functions: 355
    Spherical Harmonics?: true
    Max angular momentum: 2

  ==> Pre-Iterations <==

   -------------------------------------------------------
    Irrep   Nso     Nmo     Nalpha   Nbeta   Ndocc  Nsocc
   -------------------------------------------------------
     A        338     338       0       0       0       0
   -------------------------------------------------------
    Total     338     338      62      62      62       0
   -------------------------------------------------------

  ==> Integral Setup <==

  Using integral reordering PK algorithm.
  Sizing the integral batches needed.
  Building batch lookup table.
   Calculation information:
      Number of atoms:                  37
      Number of AO shells:             162
      Number of primitives:            474
      Number of atomic orbitals:       355
      Number of basis functions:       338

      Integral cutoff                 1.00e-12
      Number of threads:                 1

	Batch   1 pq = [       0,    9405] index = [             0,44231715] size =     44231715
	Batch   2 pq = [    9405,   13301] index = [      44231715,88464951] size =     44233236
	Batch   3 pq = [   13301,   16290] index = [      88464951,132690195] size =     44225244
	Batch   4 pq = [   16290,   18810] index = [     132690195,176917455] size =     44227260
	Batch   5 pq = [   18810,   21030] index = [     176917455,221140965] size =     44223510
	Batch   6 pq = [   21030,   23037] index = [     221140965,265363203] size =     44222238
	Batch   7 pq = [   23037,   24883] index = [     265363203,309594286] size =     44231083
	Batch   8 pq = [   24883,   26601] index = [     309594286,353819901] size =     44225615
	Batch   9 pq = [   26601,   28214] index = [     353819901,398029005] size =     44209104
	Batch  10 pq = [   28214,   29740] index = [     398029005,442248670] size =     44219665
	Batch  11 pq = [   29740,   31191] index = [     442248670,486454836] size =     44206166
	Batch  12 pq = [   31191,   32578] index = [     486454836,530679331] size =     44224495
	Batch  13 pq = [   32578,   33908] index = [     530679331,574893186] size =     44213855
	Batch  14 pq = [   33908,   35188] index = [     574893186,619115266] size =     44222080
	Batch  15 pq = [   35188,   36423] index = [     619115266,663335676] size =     44220410
	Batch  16 pq = [   36423,   37617] index = [     663335676,707538153] size =     44202477
	Batch  17 pq = [   37617,   38775] index = [     707538153,751769700] size =     44231547
	Batch  18 pq = [   38775,   39899] index = [     751769700,795985050] size =     44215350
	Batch  19 pq = [   39899,   40992] index = [     795985050,840192528] size =     44207478
	Batch  20 pq = [   40992,   42057] index = [     840192528,884416653] size =     44224125
	Batch  21 pq = [   42057,   43095] index = [     884416653,928611060] size =     44194407
	Batch  22 pq = [   43095,   44109] index = [     928611060,972823995] size =     44212935
	Batch  23 pq = [   44109,   45100] index = [     972823995,1017027550] size =     44203555
	Batch  24 pq = [   45100,   46070] index = [    1017027550,1061245485] size =     44217935
	Batch  25 pq = [   46070,   47020] index = [    1061245485,1105463710] size =     44218225
	Batch  26 pq = [   47020,   47951] index = [    1105463710,1149673176] size =     44209466
	Batch  27 pq = [   47951,   48864] index = [    1149673176,1193869680] size =     44196504
	Batch  28 pq = [   48864,   49761] index = [    1193869680,1238103441] size =     44233761
	Batch  29 pq = [   49761,   50642] index = [    1238103441,1282331403] size =     44227962
	Batch  30 pq = [   50642,   51508] index = [    1282331403,1326562786] size =     44231383
	Batch  31 pq = [   51508,   52359] index = [    1326562786,1370758620] size =     44195834
	Batch  32 pq = [   52359,   53197] index = [    1370758620,1414987003] size =     44228383
	Batch  33 pq = [   53197,   54022] index = [    1414987003,1459215253] size =     44228250
	Batch  34 pq = [   54022,   54834] index = [    1459215253,1503411195] size =     44195942
	Batch  35 pq = [   54834,   55634] index = [    1503411195,1547598795] size =     44187600
	Batch  36 pq = [   55634,   56423] index = [    1547598795,1591805676] size =     44206881
	Batch  37 pq = [   56423,   57201] index = [    1591805676,1636005801] size =     44200125
	Batch  38 pq = [   57201,   57291] index = [    1636005801,1641157986] size =      5152185
  Task number: 149
  Buffer size: 11059200
  Buffer per thread: 2
  We computed 71780984 shell quartets total.
  Whereas there are 87166206 unique shell quartets.

  ==> DiskJK: Disk-Based J/K Matrices <==

    J tasked:                  Yes
    K tasked:                  Yes
    wK tasked:                  No
    Memory [MiB]:              375
    Schwarz Cutoff:          1E-12

    OpenMP threads:              1

  Minimum eigenvalue in the overlap matrix is 3.2042460125E-04.
  Using Symmetric Orthogonalization.

  SCF Guess: Superposition of Atomic Densities via on-the-fly atomic UHF.

  ==> Iterations <==

                        Total Energy        Delta E     RMS |[F,P]|

   @RHF iter SAD:  -691.06105089540506   -6.91061e+02   0.00000e+00
   @RHF iter   1:  -692.08190081662565   -1.02085e+00   2.17983e-03 DIIS
   @RHF iter   2:  -692.39917098210776   -3.17270e-01   9.08797e-04 DIIS
   @RHF iter   3:  -692.44794498086867   -4.87740e-02   2.19501e-04 DIIS
   @RHF iter   4:  -692.45226071353386   -4.31573e-03   8.66219e-05 DIIS
   @RHF iter   5:  -692.45275632714674   -4.95614e-04   1.56011e-05 DIIS
   @RHF iter   6:  -692.45278115286010   -2.48257e-05   4.41225e-06 DIIS
   @RHF iter   7:  -692.45278317215389   -2.01929e-06   1.49391e-06 DIIS
   @RHF iter   8:  -692.45278343456800   -2.62414e-07   5.21379e-07 DIIS
   @RHF iter   9:  -692.45278347195574   -3.73877e-08   1.73949e-07 DIIS
   @RHF iter  10:  -692.45278347709552   -5.13978e-09   7.34071e-08 DIIS
   @RHF iter  11:  -692.45278347841781   -1.32229e-09   3.37257e-08 DIIS
   @RHF iter  12:  -692.45278347875160   -3.33785e-10   1.69382e-08 DIIS
   @RHF iter  13:  -692.45278347883868   -8.70841e-11   6.58953e-09 DIIS
   @RHF iter  14:  -692.45278347885039   -1.17097e-11   1.88739e-09 DIIS
   @RHF iter  15:  -692.45278347885255   -2.16005e-12   5.08826e-10 DIIS
   @RHF iter  16:  -692.45278347885710   -4.54747e-12   2.00300e-10 DIIS
   @RHF iter  17:  -692.45278347885494    2.16005e-12   8.75783e-11 DIIS
  Energy and wave function converged.

  ==> Post-Iterations <==

    Orbital Energies [Eh]
    ---------------------

    Doubly Occupied:

       1A    -20.582598     2A    -11.300877     3A    -11.240450
       4A    -11.240065     5A    -11.239407     6A    -11.237624
       7A    -11.237056     8A    -11.234450     9A    -11.233623
      10A    -11.232829    11A    -11.232733    12A    -11.232389
      13A    -11.231163    14A    -11.230459    15A    -11.229907
      16A    -11.225582    17A    -11.224371    18A     -1.394226
      19A     -1.151259    20A     -1.148639    21A     -1.062135
      22A     -1.056527    23A     -1.014668    24A     -1.011488
      25A     -0.981793    26A     -0.977219    27A     -0.864754
      28A     -0.861236    29A     -0.841884    30A     -0.824102
      31A     -0.791604    32A     -0.785755    33A     -0.729840
      34A     -0.690188    35A     -0.669371    36A     -0.646753
      37A     -0.639581    38A     -0.635179    39A     -0.613110
      40A     -0.599381    41A     -0.591550    42A     -0.587683
      43A     -0.584017    44A     -0.580758    45A     -0.578797
      46A     -0.562761    47A     -0.548148    48A     -0.541974
      49A     -0.524383    50A     -0.517599    51A     -0.501061
      52A     -0.499030    53A     -0.481795    54A     -0.481074
      55A     -0.478115    56A     -0.474205    57A     -0.464410
      58A     -0.461903    59A     -0.336354    60A     -0.332485
      61A     -0.320215    62A     -0.301832

    Virtual:

      63A      0.128991    64A      0.135486    65A      0.136250
      66A      0.152412    67A      0.175195    68A      0.179956
      69A      0.186364    70A      0.199459    71A      0.204091
      72A      0.214907    73A      0.220881    74A      0.225490
      75A      0.239231    76A      0.246350    77A      0.250649
      78A      0.258506    79A      0.261773    80A      0.269669
      81A      0.286702    82A      0.296476    83A      0.297865
      84A      0.313920    85A      0.317611    86A      0.342991
      87A      0.350222    88A      0.361929    89A      0.391315
      90A      0.410239    91A      0.418894    92A      0.425314
      93A      0.433941    94A      0.450245    95A      0.457912
      96A      0.483012    97A      0.487229    98A      0.490643
      99A      0.494298   100A      0.501787   101A      0.533905
     102A      0.565950   103A      0.588328   104A      0.595176
     105A      0.618441   106A      0.625439   107A      0.637073
     108A      0.639814   109A      0.648243   110A      0.658331
     111A      0.663665   112A      0.681659   113A      0.686982
     114A      0.693536   115A      0.696957   116A      0.710529
     117A      0.719607   118A      0.722310   119A      0.728580
     120A      0.736185   121A      0.737674   122A      0.739335
     123A      0.741243   124A      0.745354   125A      0.755685
     126A      0.763083   127A      0.765176   128A      0.779042
     129A      0.789814   130A      0.795895   131A      0.804723
     132A      0.824178   133A      0.831683   134A      0.836280
     135A      0.848410   136A      0.862298   137A      0.862940
     138A      0.867434   139A      0.873237   140A      0.876563
     141A      0.876995   142A      0.887388   143A      0.891677
     144A      0.894917   145A      0.899371   146A      0.900127
     147A      0.904390   148A      0.914088   149A      0.928007
     150A      0.932613   151A      0.936812   152A      0.938392
     153A      0.950116   154A      0.954186   155A      0.961154
     156A      0.964263   157A      0.974539   158A      0.986404
     159A      0.995916   160A      1.004460   161A      1.012001
     162A      1.018910   163A      1.038959   164A      1.067241
     165A      1.086764   166A      1.113124   167A      1.114161
     168A      1.133363   169A      1.136345   170A      1.144191
     171A      1.145130   172A      1.150457   173A      1.160530
     174A      1.165164   175A      1.179926   176A      1.192960
     177A      1.225683   178A      1.239719   179A      1.242338
     180A      1.244991   181A      1.247520   182A      1.252583
     183A      1.266286   184A      1.282566   185A      1.286735
     186A      1.288493   187A      1.296489   188A      1.303985
     189A      1.307332   190A      1.312467   191A      1.317446
     192A      1.347710   193A      1.355510   194A      1.381160
     195A      1.408920   196A      1.416142   197A      1.428575
     198A      1.435679   199A      1.455972   200A      1.493981
     201A      1.503786   202A      1.509607   203A      1.533565
     204A      1.544727   205A      1.598387   206A      1.608951
     207A      1.617006   208A      1.621404   209A      1.637612
     210A      1.677689   211A      1.686419   212A      1.700383
     213A      1.709574   214A      1.719383   215A      1.730563
     216A      1.738928   217A      1.742975   218A      1.759317
     219A      1.767879   220A      1.769426   221A      1.796997
     222A      1.832598   223A      1.845448   224A      1.849797
     225A      1.856187   226A      1.858288   227A      1.874966
     228A      1.876169   229A      1.880438   230A      1.884327
     231A      1.893272   232A      1.895057   233A      1.899426
     234A      1.900523   235A      1.912861   236A      1.918416
     237A      1.925278   238A      1.930076   239A      1.939915
     240A      1.942033   241A      1.945859   242A      1.948982
     243A      1.952728   244A      1.957096   245A      1.964777
     246A      1.976267   247A      1.979471   248A      1.981128
     249A      1.989695   250A      2.000663   251A      2.009013
     252A      2.013430   253A      2.028268   254A      2.039334
     255A      2.046617   256A      2.057452   257A      2.059467
     258A      2.061789   259A      2.075815   260A      2.086322
     261A      2.108203   262A      2.117121   263A      2.132169
     264A      2.137950   265A      2.150724   266A      2.153488
     267A      2.156325   268A      2.161414   269A      2.166222
     270A      2.176364   271A      2.190275   272A      2.206035
     273A      2.230625   274A      2.241819   275A      2.245615
     276A      2.257294   277A      2.268188   278A      2.272884
     279A      2.299566   280A      2.307394   281A      2.315314
     282A      2.322148   283A      2.329207   284A      2.339375
     285A      2.365295   286A      2.391139   287A      2.446120
     288A      2.451572   289A      2.459138   290A      2.464951
     291A      2.470871   292A      2.477438   293A      2.493532
     294A      2.496402   295A      2.512613   296A      2.530218
     297A      2.543589   298A      2.549774   299A      2.559475
     300A      2.583456   301A      2.634369   302A      2.639685
     303A      2.660720   304A      2.741233   305A      2.750538
     306A      2.758330   307A      2.771168   308A      2.777368
     309A      2.779617   310A      2.783086   311A      2.796321
     312A      2.807111   313A      2.838213   314A      2.867346
     315A      2.876687   316A      2.879334   317A      2.922787
     318A      2.950126   319A      2.954900   320A      2.971904
     321A      2.987815   322A      2.989378   323A      3.002590
     324A      3.016366   325A      3.046713   326A      3.082367
     327A      3.167611   328A      3.179528   329A      3.195139
     330A      3.243520   331A      3.277047   332A      3.295498
     333A      3.342521   334A      3.560463   335A      3.656690
     336A      3.952935   337A      3.961376   338A      4.183630

    Final Occupation by Irrep:
              A
    DOCC [    62 ]

  @RHF Final Energy:  -692.45278347885494

   => Energetics <=

    Nuclear Repulsion Energy =           1035.9170699925107328
    One-Electron Energy =               -2994.4868544410724098
    Two-Electron Energy =                1266.1170009697068508
    Total Energy =                       -692.4527834788548262

Computation Completed

Properties will be evaluated at   0.000000,   0.000000,   0.000000 [a0]

Properties computed using the SCF density matrix

  Nuclear Dipole Moment: [e a0]
     X:   -10.9796      Y:     5.8940      Z:     8.6908

  Electronic Dipole Moment: [e a0]
     X:    10.7149      Y:    -6.2934      Z:    -8.4567

  Dipole Moment: [e a0]
     X:    -0.2647      Y:    -0.3994      Z:     0.2341     Total:     0.5333

  Dipole Moment: [D]
     X:    -0.6728      Y:    -1.0151      Z:     0.5951     Total:     1.3554

*** tstop() called on ds3 at Tue Apr 28 10:05:19 2020
Module time:
	user time   =     675.42 seconds =      11.26 minutes
	system time =     267.46 seconds =       4.46 minutes
	total time  =       1414 seconds =      23.57 minutes
Total time:
	user time   =     675.42 seconds =      11.26 minutes
	system time =     267.46 seconds =       4.46 minutes
	total time  =       1414 seconds =      23.57 minutes
                                     G D M A

                                 by Anthony Stone

                           version 2.2.06, 22 June 2011

               Distributed Multipoles from Gaussian wavefunctions

Starting at 10:5:19 on 28 Apr 2020

Using SCF density matrix from file ./SSI/SSI-040TYR-082PHE-1-dimer.test.17069.fchk

                         Distributed Multipole Analysis

Standard DMA

Positions and radii in angstrom
Multipole moments in atomic units, ea_0^k for rank k

C          x = -0.780938  y =  0.621776  z = -1.342833 angstrom
           Maximum rank =  0   Radius =  0.650 angstrom
                   Q00  =  -0.021872

C          x = -2.291938  y =  0.899776  z = -1.426833 angstrom
           Maximum rank =  0   Radius =  0.650 angstrom
                   Q00  =  -0.259741

C          x = -0.137938  y =  0.100776  z = -2.605833 angstrom
           Maximum rank =  0   Radius =  0.650 angstrom
                   Q00  =  -0.135961

C          x = -0.107938  y = -1.272224  z = -2.869833 angstrom
           Maximum rank =  0   Radius =  0.650 angstrom
                   Q00  =   0.025360

C          x =  0.462062  y =  0.971776  z = -3.522833 angstrom
           Maximum rank =  0   Radius =  0.650 angstrom
                   Q00  =  -0.055089

C          x =  0.511062  y = -1.768224  z = -4.018833 angstrom
           Maximum rank =  0   Radius =  0.650 angstrom
                   Q00  =  -0.157794

C          x =  1.091062  y =  0.476776  z = -4.679833 angstrom
           Maximum rank =  0   Radius =  0.650 angstrom
                   Q00  =  -0.123371

C          x =  1.109062  y = -0.896224  z = -4.928833 angstrom
           Maximum rank =  0   Radius =  0.650 angstrom
                   Q00  =   0.335169

O          x =  1.701062  y = -1.384224  z = -6.067833 angstrom
           Maximum rank =  0   Radius =  0.650 angstrom
                   Q00  =  -0.681972

H          x = -0.283938  y =  1.541776  z = -1.050833 angstrom
           Maximum rank =  0   Radius =  0.325 angstrom
                   Q00  =   0.063884

H          x = -0.604938  y = -0.101224  z = -0.546833 angstrom
           Maximum rank =  0   Radius =  0.325 angstrom
                   Q00  =   0.067623

H          x = -2.556938  y =  1.358776  z = -0.477833 angstrom
           Maximum rank =  0   Radius =  0.325 angstrom
                   Q00  =   0.079515

H          x = -0.568938  y = -1.962224  z = -2.174833 angstrom
           Maximum rank =  0   Radius =  0.325 angstrom
                   Q00  =   0.067377

H          x =  0.459062  y =  2.034776  z = -3.334833 angstrom
           Maximum rank =  0   Radius =  0.325 angstrom
                   Q00  =   0.063417

H          x =  0.518062  y = -2.831224  z = -4.209833 angstrom
           Maximum rank =  0   Radius =  0.325 angstrom
                   Q00  =   0.071736

H          x =  1.560062  y =  1.153776  z = -5.378833 angstrom
           Maximum rank =  0   Radius =  0.325 angstrom
                   Q00  =   0.082432

H          x =  1.649062  y = -2.345224  z = -6.123833 angstrom
           Maximum rank =  0   Radius =  0.325 angstrom
                   Q00  =   0.407358

H          x = -2.878698  y = -0.020559  z = -1.563573 angstrom
           Maximum rank =  0   Radius =  0.325 angstrom
                   Q00  =   0.085524

H          x = -2.529448  y =  1.664283  z = -2.181233 angstrom
           Maximum rank =  0   Radius =  0.325 angstrom
                   Q00  =   0.086280

C          x = -1.180938  y =  0.647776  z =  2.290167 angstrom
           Maximum rank =  0   Radius =  0.650 angstrom
                   Q00  =  -0.031722

C          x = -2.281938  y =  1.689776  z =  2.521167 angstrom
           Maximum rank =  0   Radius =  0.650 angstrom
                   Q00  =  -0.251427

C          x = -0.383938  y =  0.302776  z =  3.524167 angstrom
           Maximum rank =  0   Radius =  0.650 angstrom
                   Q00  =  -0.100705

C          x =  0.742062  y =  1.057776  z =  3.853167 angstrom
           Maximum rank =  0   Radius =  0.650 angstrom
                   Q00  =  -0.017783

C          x = -0.744938  y = -0.780224  z =  4.337167 angstrom
           Maximum rank =  0   Radius =  0.650 angstrom
                   Q00  =  -0.054054

C          x =  1.520062  y =  0.734776  z =  4.963167 angstrom
           Maximum rank =  0   Radius =  0.650 angstrom
                   Q00  =  -0.077683

C          x =  0.028062  y = -1.115224  z =  5.448167 angstrom
           Maximum rank =  0   Radius =  0.650 angstrom
                   Q00  =  -0.071195

C          x =  1.164062  y = -0.355224  z =  5.765167 angstrom
           Maximum rank =  0   Radius =  0.650 angstrom
                   Q00  =  -0.091133

H          x = -1.627938  y = -0.270224  z =  1.909167 angstrom
           Maximum rank =  0   Radius =  0.325 angstrom
                   Q00  =   0.063299

H          x = -0.496938  y =  1.007776  z =  1.523167 angstrom
           Maximum rank =  0   Radius =  0.325 angstrom
                   Q00  =   0.070254

H          x = -2.905938  y =  1.740776  z =  1.630167 angstrom
           Maximum rank =  0   Radius =  0.325 angstrom
                   Q00  =   0.083265

H          x =  1.028062  y =  1.893776  z =  3.231167 angstrom
           Maximum rank =  0   Radius =  0.325 angstrom
                   Q00  =   0.054989

H          x = -1.615938  y = -1.372224  z =  4.097167 angstrom
           Maximum rank =  0   Radius =  0.325 angstrom
                   Q00  =   0.056513

H          x =  2.398062  y =  1.318776  z =  5.202167 angstrom
           Maximum rank =  0   Radius =  0.325 angstrom
                   Q00  =   0.066719

H          x = -0.248938  y = -1.956224  z =  6.067167 angstrom
           Maximum rank =  0   Radius =  0.325 angstrom
                   Q00  =   0.066496

H          x =  1.761062  y = -0.613224  z =  6.626167 angstrom
           Maximum rank =  0   Radius =  0.325 angstrom
                   Q00  =   0.063635

H          x = -1.849453  y =  2.684340  z =  2.705007 angstrom
           Maximum rank =  0   Radius =  0.325 angstrom
                   Q00  =   0.084673

H          x = -2.926027  y =  1.367731  z =  3.352697 angstrom
           Maximum rank =  0   Radius =  0.325 angstrom
                   Q00  =   0.085985

Total multipoles referred to origin at
           x =   0.000000,  y =    0.000000,  z =    0.000000 angstrom
                   Q00  =  -0.000000

Finished at 10:5:19 on 28 Apr 2020

  DMA results are available in the Python driver through the
	  variable('DMA DISTRIBUTED MULTIPOLES')
  and
	  variable('DMA TOTAL MULTIPOLES')
  commands.

    Psi4 stopped on: Tuesday, 28 April 2020 10:05AM
    Psi4 wall time for execution: 0:23:34.60

*** Psi4 exiting successfully. Buy a developer a beer!
