                               Psi4 1.3.2 release

  ==> Input File <==

--------------------------------------------------------------------------
import numpy as np
set {scf_type pk
basis cc-pvdz
d_convergence 10
gdma_switch   0
gdma_limit    0
gdma_origin   [ 0.0,  0.0,  0.0 ]
}
molecule test {
    units Angstrom
    0 1
    --
    0 1
    C                0.260266090228812    -1.458028348809300     1.501665107728496
    C                0.656266090228812    -1.870028348809301     2.910665107728496
    H                1.150266090228812    -1.397028348809300     0.875665107728496
    H               -0.411733909771188    -2.205028348809301     1.074665107728496
    H               -0.245733909771188    -0.494028348809300     1.528665107728496
    H                1.179266090228812    -2.819028348809300     2.826665107728496
    H                1.321336090228812    -1.119858348809301     3.363344107728496
    H               -0.241097909771188    -2.022468348809300     3.528322107728497
    C               -0.386733909771188     0.579971651190699    -1.540334892271504
    C               -1.492733909771188     1.586971651190699    -1.872334892271504
    C                0.939266090228812     1.209971651190699    -1.112334892271504
    H               -0.749733909771188    -0.023028348809300    -0.708334892271504
    H               -0.230733909771188    -0.103028348809300    -2.372334892271504
    H               -1.660733909771188     2.231971651190700    -1.006334892271504
    H                0.737266090228812     2.076971651190699    -0.488334892271504
    H                1.476266090228812     0.487971651190700    -0.499334892271504
    H               -2.426587909771188     1.060741651190700    -2.119310892271504
    H               -1.200831909771188     2.238691651190699    -2.709024892271504
    H                1.584616090228812     1.505401651190700    -1.952720892271504

}
e, wfn = energy('scf', return_wfn=True)
gdma(wfn)
dmavals = variable('DMA DISTRIBUTED MULTIPOLES')
charges = np.array(dmavals)
print(charges)
np.save('SSI-012LEU-039ARG-1-dimer.npy', np.array(charges))--------------------------------------------------------------------------

*** tstart() called on ds3
*** at Tue Apr 28 00:46:03 2020

   => Loading Basis Set <=

    Name: CC-PVDZ
    Role: ORBITAL
    Keyword: BASIS
    atoms 1-2, 9-11  entry C          line   138 file /theoryfs2/ds/metcalf/miniconda2/envs/tf2gpu/share/psi4/basis/cc-pvdz.gbs
    atoms 3-8, 12-19 entry H          line    22 file /theoryfs2/ds/metcalf/miniconda2/envs/tf2gpu/share/psi4/basis/cc-pvdz.gbs

         ---------------------------------------------------------
                                   SCF
               by Justin Turney, Rob Parrish, Andy Simmonett
                          and Daniel G. A. Smith
                              RHF Reference
                        1 Threads,    500 MiB Core
         ---------------------------------------------------------

  ==> Geometry <==

    Molecular point group: c1
    Full point group: C1

    Geometry (in Angstrom), charge = 0, multiplicity = 1:

       Center              X                  Y                   Z               Mass
    ------------   -----------------  -----------------  -----------------  -----------------
         C            0.260266090229    -1.458028348809     1.501665107728    12.000000000000
         C            0.656266090229    -1.870028348809     2.910665107728    12.000000000000
         H            1.150266090229    -1.397028348809     0.875665107728     1.007825032230
         H           -0.411733909771    -2.205028348809     1.074665107728     1.007825032230
         H           -0.245733909771    -0.494028348809     1.528665107728     1.007825032230
         H            1.179266090229    -2.819028348809     2.826665107728     1.007825032230
         H            1.321336090229    -1.119858348809     3.363344107728     1.007825032230
         H           -0.241097909771    -2.022468348809     3.528322107728     1.007825032230
         C           -0.386733909771     0.579971651191    -1.540334892272    12.000000000000
         C           -1.492733909771     1.586971651191    -1.872334892272    12.000000000000
         C            0.939266090229     1.209971651191    -1.112334892272    12.000000000000
         H           -0.749733909771    -0.023028348809    -0.708334892272     1.007825032230
         H           -0.230733909771    -0.103028348809    -2.372334892272     1.007825032230
         H           -1.660733909771     2.231971651191    -1.006334892272     1.007825032230
         H            0.737266090229     2.076971651191    -0.488334892272     1.007825032230
         H            1.476266090229     0.487971651191    -0.499334892272     1.007825032230
         H           -2.426587909771     1.060741651191    -2.119310892272     1.007825032230
         H           -1.200831909771     2.238691651191    -2.709024892272     1.007825032230
         H            1.584616090229     1.505401651191    -1.952720892272     1.007825032230

  Running in c1 symmetry.

  Rotational constants: A =      0.27089  B =      0.03746  C =      0.03489 [cm^-1]
  Rotational constants: A =   8121.00321  B =   1123.06561  C =   1045.94934 [MHz]
  Nuclear repulsion =  177.881653268624717

  Charge       = 0
  Multiplicity = 1
  Electrons    = 44
  Nalpha       = 22
  Nbeta        = 22

  ==> Algorithm <==

  SCF Algorithm Type is PK.
  DIIS enabled.
  MOM disabled.
  Fractional occupation disabled.
  Guess Type is SAD.
  Energy threshold   = 1.00e-06
  Density threshold  = 1.00e-10
  Integral threshold = 0.00e+00

  ==> Primary Basis <==

  Basis Set: CC-PVDZ
    Blend: CC-PVDZ
    Number of shells: 72
    Number of basis function: 140
    Number of Cartesian functions: 145
    Spherical Harmonics?: true
    Max angular momentum: 2

  ==> Pre-Iterations <==

   -------------------------------------------------------
    Irrep   Nso     Nmo     Nalpha   Nbeta   Ndocc  Nsocc
   -------------------------------------------------------
     A        140     140       0       0       0       0
   -------------------------------------------------------
    Total     140     140      22      22      22       0
   -------------------------------------------------------

  ==> Integral Setup <==

  Using integral reordering PK algorithm.
  Sizing the integral batches needed.
  Building batch lookup table.
   Calculation information:
      Number of atoms:                  19
      Number of AO shells:              72
      Number of primitives:            180
      Number of atomic orbitals:       145
      Number of basis functions:       140

      Integral cutoff                 1.00e-12
      Number of threads:                 1

	Batch   1 pq = [       0,    9405] index = [             0,44231715] size =     44231715
	Batch   2 pq = [    9405,    9870] index = [      44231715,48713385] size =      4481670
  Task number: 5
  Buffer size: 11059200
  Buffer per thread: 2
  We computed 2849235 shell quartets total.
  Whereas there are 3454506 unique shell quartets.

  ==> DiskJK: Disk-Based J/K Matrices <==

    J tasked:                  Yes
    K tasked:                  Yes
    wK tasked:                  No
    Memory [MiB]:              375
    Schwarz Cutoff:          1E-12

    OpenMP threads:              1

  Minimum eigenvalue in the overlap matrix is 5.2234823566E-03.
  Using Symmetric Orthogonalization.

  SCF Guess: Superposition of Atomic Densities via on-the-fly atomic UHF.

  ==> Iterations <==

                        Total Energy        Delta E     RMS |[F,P]|

   @RHF iter SAD:  -196.38247767323591   -1.96382e+02   0.00000e+00
   @RHF iter   1:  -197.30982968352353   -9.27352e-01   3.80161e-03 DIIS
   @RHF iter   2:  -197.47012975045894   -1.60300e-01   1.63205e-03 DIIS
   @RHF iter   3:  -197.49830127673602   -2.81715e-02   3.26292e-04 DIIS
   @RHF iter   4:  -197.50053447355850   -2.23320e-03   4.87813e-05 DIIS
   @RHF iter   5:  -197.50057392158885   -3.94480e-05   1.47952e-05 DIIS
   @RHF iter   6:  -197.50057730845350   -3.38686e-06   2.50148e-06 DIIS
   @RHF iter   7:  -197.50057742032200   -1.11869e-07   4.82210e-07 DIIS
   @RHF iter   8:  -197.50057742525402   -4.93202e-09   1.26632e-07 DIIS
   @RHF iter   9:  -197.50057742557979   -3.25770e-10   4.08023e-08 DIIS
   @RHF iter  10:  -197.50057742561839   -3.85967e-11   8.41761e-09 DIIS
   @RHF iter  11:  -197.50057742562009   -1.70530e-12   1.54927e-09 DIIS
   @RHF iter  12:  -197.50057742562089   -7.95808e-13   2.84707e-10 DIIS
   @RHF iter  13:  -197.50057742562018    7.10543e-13   7.02908e-11 DIIS
  Energy and wave function converged.

  ==> Post-Iterations <==

    Orbital Energies [Eh]
    ---------------------

    Doubly Occupied:

       1A    -11.218965     2A    -11.217339     3A    -11.217251
       4A    -11.216627     5A    -11.214065     6A     -1.050299
       7A     -1.022217     8A     -0.923873     9A     -0.836428
      10A     -0.795918    11A     -0.621921    12A     -0.602189
      13A     -0.601910    14A     -0.592215    15A     -0.549337
      16A     -0.530270    17A     -0.501141    18A     -0.487612
      19A     -0.486585    20A     -0.471425    21A     -0.469953
      22A     -0.458951

    Virtual:

      23A      0.173566    24A      0.194996    25A      0.224289
      26A      0.226861    27A      0.233077    28A      0.244872
      29A      0.258354    30A      0.269234    31A      0.273835
      32A      0.283033    33A      0.289515    34A      0.301352
      35A      0.320139    36A      0.352514    37A      0.389679
      38A      0.406400    39A      0.433839    40A      0.578514
      41A      0.590163    42A      0.597399    43A      0.603455
      44A      0.608162    45A      0.616262    46A      0.632573
      47A      0.677198    48A      0.700927    49A      0.768121
      50A      0.778504    51A      0.814716    52A      0.857177
      53A      0.864377    54A      0.883238    55A      0.891491
      56A      0.893603    57A      0.896339    58A      0.897325
      59A      0.901195    60A      0.907506    61A      0.914628
      62A      0.918525    63A      0.933233    64A      0.946910
      65A      0.957627    66A      0.972654    67A      0.989475
      68A      1.017049    69A      1.120056    70A      1.121709
      71A      1.134407    72A      1.151787    73A      1.229987
      74A      1.247222    75A      1.390110    76A      1.446029
      77A      1.472116    78A      1.479494    79A      1.498178
      80A      1.537815    81A      1.582095    82A      1.653264
      83A      1.665058    84A      1.676574    85A      1.688117
      86A      1.691141    87A      1.715303    88A      1.844419
      89A      1.853434    90A      1.867608    91A      1.870488
      92A      1.879026    93A      1.903907    94A      1.919846
      95A      1.931779    96A      1.939758    97A      1.947137
      98A      1.950575    99A      1.954106   100A      1.963600
     101A      1.976559   102A      1.983873   103A      1.990659
     104A      2.010678   105A      2.016016   106A      2.047558
     107A      2.063949   108A      2.097016   109A      2.123611
     110A      2.136396   111A      2.166372   112A      2.270514
     113A      2.298384   114A      2.314688   115A      2.328596
     116A      2.350831   117A      2.359639   118A      2.452609
     119A      2.470552   120A      2.477630   121A      2.535450
     122A      2.559494   123A      2.576879   124A      2.582022
     125A      2.613207   126A      2.651678   127A      2.755203
     128A      2.764763   129A      2.774584   130A      2.785753
     131A      2.792752   132A      2.835785   133A      2.846782
     134A      2.849723   135A      2.921989   136A      2.942276
     137A      2.955040   138A      2.969335   139A      2.978707
     140A      3.060933

    Final Occupation by Irrep:
              A
    DOCC [    22 ]

  @RHF Final Energy:  -197.50057742562018

   => Energetics <=

    Nuclear Repulsion Energy =            177.8816532686247172
    One-Electron Energy =                -616.5914804899258570
    Two-Electron Energy =                 241.2092497956809325
    Total Energy =                       -197.5005774256201789

Computation Completed

Properties will be evaluated at   0.000000,   0.000000,   0.000000 [a0]

Properties computed using the SCF density matrix

  Nuclear Dipole Moment: [e a0]
     X:     0.2642      Y:    -0.5454      Z:     1.2577

  Electronic Dipole Moment: [e a0]
     X:    -0.2610      Y:     0.4796      Z:    -1.2254

  Dipole Moment: [e a0]
     X:     0.0032      Y:    -0.0657      Z:     0.0323     Total:     0.0733

  Dipole Moment: [D]
     X:     0.0081      Y:    -0.1671      Z:     0.0822     Total:     0.1864

*** tstop() called on ds3 at Tue Apr 28 00:46:28 2020
Module time:
	user time   =      14.51 seconds =       0.24 minutes
	system time =       5.59 seconds =       0.09 minutes
	total time  =         25 seconds =       0.42 minutes
Total time:
	user time   =      14.51 seconds =       0.24 minutes
	system time =       5.59 seconds =       0.09 minutes
	total time  =         25 seconds =       0.42 minutes
                                     G D M A

                                 by Anthony Stone

                           version 2.2.06, 22 June 2011

               Distributed Multipoles from Gaussian wavefunctions

Starting at 0:46:28 on 28 Apr 2020

Using SCF density matrix from file ./SSI/SSI-012LEU-039ARG-1-dimer.test.27783.fchk

                         Distributed Multipole Analysis

Standard DMA

Positions and radii in angstrom
Multipole moments in atomic units, ea_0^k for rank k

C          x =  0.260266  y = -1.458028  z =  1.501665 angstrom
           Maximum rank =  0   Radius =  0.650 angstrom
                   Q00  =  -0.240228

C          x =  0.656266  y = -1.870028  z =  2.910665 angstrom
           Maximum rank =  0   Radius =  0.650 angstrom
                   Q00  =  -0.227606

H          x =  1.150266  y = -1.397028  z =  0.875665 angstrom
           Maximum rank =  0   Radius =  0.325 angstrom
                   Q00  =   0.079153

H          x = -0.411734  y = -2.205028  z =  1.074665 angstrom
           Maximum rank =  0   Radius =  0.325 angstrom
                   Q00  =   0.078212

H          x = -0.245734  y = -0.494028  z =  1.528665 angstrom
           Maximum rank =  0   Radius =  0.325 angstrom
                   Q00  =   0.074900

H          x =  1.179266  y = -2.819028  z =  2.826665 angstrom
           Maximum rank =  0   Radius =  0.325 angstrom
                   Q00  =   0.077663

H          x =  1.321336  y = -1.119858  z =  3.363344 angstrom
           Maximum rank =  0   Radius =  0.325 angstrom
                   Q00  =   0.080653

H          x = -0.241098  y = -2.022468  z =  3.528322 angstrom
           Maximum rank =  0   Radius =  0.325 angstrom
                   Q00  =   0.078912

C          x = -0.386734  y =  0.579972  z = -1.540335 angstrom
           Maximum rank =  0   Radius =  0.650 angstrom
                   Q00  =  -0.108472

C          x = -1.492734  y =  1.586972  z = -1.872335 angstrom
           Maximum rank =  0   Radius =  0.650 angstrom
                   Q00  =  -0.233387

C          x =  0.939266  y =  1.209972  z = -1.112335 angstrom
           Maximum rank =  0   Radius =  0.650 angstrom
                   Q00  =  -0.242564

H          x = -0.749734  y = -0.023028  z = -0.708335 angstrom
           Maximum rank =  0   Radius =  0.325 angstrom
                   Q00  =   0.052041

H          x = -0.230734  y = -0.103028  z = -2.372335 angstrom
           Maximum rank =  0   Radius =  0.325 angstrom
                   Q00  =   0.050644

H          x = -1.660734  y =  2.231972  z = -1.006335 angstrom
           Maximum rank =  0   Radius =  0.325 angstrom
                   Q00  =   0.075617

H          x =  0.737266  y =  2.076972  z = -0.488335 angstrom
           Maximum rank =  0   Radius =  0.325 angstrom
                   Q00  =   0.074512

H          x =  1.476266  y =  0.487972  z = -0.499335 angstrom
           Maximum rank =  0   Radius =  0.325 angstrom
                   Q00  =   0.089570

H          x = -2.426588  y =  1.060742  z = -2.119311 angstrom
           Maximum rank =  0   Radius =  0.325 angstrom
                   Q00  =   0.084252

H          x = -1.200832  y =  2.238692  z = -2.709025 angstrom
           Maximum rank =  0   Radius =  0.325 angstrom
                   Q00  =   0.074980

H          x =  1.584616  y =  1.505402  z = -1.952721 angstrom
           Maximum rank =  0   Radius =  0.325 angstrom
                   Q00  =   0.081148

Total multipoles referred to origin at
           x =   0.000000,  y =    0.000000,  z =    0.000000 angstrom
                   Q00  =  -0.000000

Finished at 0:46:28 on 28 Apr 2020

  DMA results are available in the Python driver through the
	  variable('DMA DISTRIBUTED MULTIPOLES')
  and
	  variable('DMA TOTAL MULTIPOLES')
  commands.

    Psi4 stopped on: Tuesday, 28 April 2020 12:46AM
    Psi4 wall time for execution: 0:00:24.96

*** Psi4 exiting successfully. Buy a developer a beer!
