                               Psi4 1.3.2 release

  ==> Input File <==

--------------------------------------------------------------------------
import numpy as np
set {scf_type pk
basis cc-pvdz
d_convergence 10
gdma_switch   0
gdma_limit    0
gdma_origin   [ 0.0,  0.0,  0.0 ]
}
molecule test {
    units Angstrom
    0 1
    --
    0 1
    C               -0.936150887692164    -0.632253505105017     1.251168448695954
    C               -1.390150887692164    -1.147253505105017     2.671168448695954
    H               -1.495150887692164     0.265746494894983     0.980168448695954
    H                0.122849112307836    -0.383253505105017     1.306168448695954
    H               -1.090150887692165    -1.405253505105017     0.497168448695954
    H               -1.179150887692165    -0.373253505105017     3.403168448695954
    H               -2.472494887692165    -1.333617505105017     2.609528448695954
    H               -0.853490887692165    -2.070046505105017     2.936588448695954
    C                1.469849112307835     1.004746494894983    -1.260831551304046
    C                0.849849112307835     0.774746494894983    -2.665831551304046
    H                1.243849112307835     2.009746494894983    -0.900831551304046
    H                1.056849112307835     0.275746494894983    -0.569831551304046
    H                2.550849112307835     0.865746494894983    -1.294831551304046
    H                1.022849112307835    -0.256253505105017    -2.969831551304046
    H                1.405439112307835     1.448211494894983    -3.334981551304046
    H               -0.233618887692164     0.956647494894983    -2.610971551304046

}
e, wfn = energy('scf', return_wfn=True)
gdma(wfn)
dmavals = variable('DMA DISTRIBUTED MULTIPOLES')
charges = np.array(dmavals)
print(charges)
np.save('SSI-135LEU-179LEU-1-dimer.npy', np.array(charges))--------------------------------------------------------------------------

*** tstart() called on ds3
*** at Mon Apr 27 04:47:57 2020

   => Loading Basis Set <=

    Name: CC-PVDZ
    Role: ORBITAL
    Keyword: BASIS
    atoms 1-2, 9-10  entry C          line   138 file /theoryfs2/ds/metcalf/miniconda2/envs/tf2gpu/share/psi4/basis/cc-pvdz.gbs
    atoms 3-8, 11-16 entry H          line    22 file /theoryfs2/ds/metcalf/miniconda2/envs/tf2gpu/share/psi4/basis/cc-pvdz.gbs

         ---------------------------------------------------------
                                   SCF
               by Justin Turney, Rob Parrish, Andy Simmonett
                          and Daniel G. A. Smith
                              RHF Reference
                        1 Threads,    500 MiB Core
         ---------------------------------------------------------

  ==> Geometry <==

    Molecular point group: c1
    Full point group: C1

    Geometry (in Angstrom), charge = 0, multiplicity = 1:

       Center              X                  Y                   Z               Mass
    ------------   -----------------  -----------------  -----------------  -----------------
         C           -0.936150887692    -0.632253505105     1.251168448696    12.000000000000
         C           -1.390150887692    -1.147253505105     2.671168448696    12.000000000000
         H           -1.495150887692     0.265746494895     0.980168448696     1.007825032230
         H            0.122849112308    -0.383253505105     1.306168448696     1.007825032230
         H           -1.090150887692    -1.405253505105     0.497168448696     1.007825032230
         H           -1.179150887692    -0.373253505105     3.403168448696     1.007825032230
         H           -2.472494887692    -1.333617505105     2.609528448696     1.007825032230
         H           -0.853490887692    -2.070046505105     2.936588448696     1.007825032230
         C            1.469849112308     1.004746494895    -1.260831551304    12.000000000000
         C            0.849849112308     0.774746494895    -2.665831551304    12.000000000000
         H            1.243849112308     2.009746494895    -0.900831551304     1.007825032230
         H            1.056849112308     0.275746494895    -0.569831551304     1.007825032230
         H            2.550849112308     0.865746494895    -1.294831551304     1.007825032230
         H            1.022849112308    -0.256253505105    -2.969831551304     1.007825032230
         H            1.405439112308     1.448211494895    -3.334981551304     1.007825032230
         H           -0.233618887692     0.956647494895    -2.610971551304     1.007825032230

  Running in c1 symmetry.

  Rotational constants: A =      0.60242  B =      0.04257  C =      0.04101 [cm^-1]
  Rotational constants: A =  18059.99162  B =   1276.26088  C =   1229.48914 [MHz]
  Nuclear repulsion =  119.607058285552796

  Charge       = 0
  Multiplicity = 1
  Electrons    = 36
  Nalpha       = 18
  Nbeta        = 18

  ==> Algorithm <==

  SCF Algorithm Type is PK.
  DIIS enabled.
  MOM disabled.
  Fractional occupation disabled.
  Guess Type is SAD.
  Energy threshold   = 1.00e-06
  Density threshold  = 1.00e-10
  Integral threshold = 0.00e+00

  ==> Primary Basis <==

  Basis Set: CC-PVDZ
    Blend: CC-PVDZ
    Number of shells: 60
    Number of basis function: 116
    Number of Cartesian functions: 120
    Spherical Harmonics?: true
    Max angular momentum: 2

  ==> Pre-Iterations <==

   -------------------------------------------------------
    Irrep   Nso     Nmo     Nalpha   Nbeta   Ndocc  Nsocc
   -------------------------------------------------------
     A        116     116       0       0       0       0
   -------------------------------------------------------
    Total     116     116      18      18      18       0
   -------------------------------------------------------

  ==> Integral Setup <==

  Using integral reordering PK algorithm.
  Sizing the integral batches needed.
  Building batch lookup table.
   Calculation information:
      Number of atoms:                  16
      Number of AO shells:              60
      Number of primitives:            148
      Number of atomic orbitals:       120
      Number of basis functions:       116

      Integral cutoff                 1.00e-12
      Number of threads:                 1

	Batch   1 pq = [       0,    6786] index = [             0,23028291] size =     23028291
  Task number: 3
  Buffer size: 11059200
  Buffer per thread: 2
  We computed 1371264 shell quartets total.
  Whereas there are 1675365 unique shell quartets.

  ==> DiskJK: Disk-Based J/K Matrices <==

    J tasked:                  Yes
    K tasked:                  Yes
    wK tasked:                  No
    Memory [MiB]:              375
    Schwarz Cutoff:          1E-12

    OpenMP threads:              1

  Minimum eigenvalue in the overlap matrix is 6.7509916841E-03.
  Using Symmetric Orthogonalization.

  SCF Guess: Superposition of Atomic Densities via on-the-fly atomic UHF.

  ==> Iterations <==

                        Total Energy        Delta E     RMS |[F,P]|

   @RHF iter SAD:  -157.24749298377969   -1.57247e+02   0.00000e+00
   @RHF iter   1:  -158.31045591907809   -1.06296e+00   4.10522e-03 DIIS
   @RHF iter   2:  -158.43899236694449   -1.28536e-01   1.71278e-03 DIIS
   @RHF iter   3:  -158.46051112091260   -2.15188e-02   3.43669e-04 DIIS
   @RHF iter   4:  -158.46228004846895   -1.76893e-03   3.87691e-05 DIIS
   @RHF iter   5:  -158.46230430880661   -2.42603e-05   6.74599e-06 DIIS
   @RHF iter   6:  -158.46230501993438   -7.11128e-07   1.05273e-06 DIIS
   @RHF iter   7:  -158.46230503276811   -1.28337e-08   3.39481e-07 DIIS
   @RHF iter   8:  -158.46230503388887   -1.12075e-09   5.39980e-08 DIIS
   @RHF iter   9:  -158.46230503394008   -5.12159e-11   1.17941e-08 DIIS
   @RHF iter  10:  -158.46230503394284   -2.75691e-12   2.82423e-09 DIIS
   @RHF iter  11:  -158.46230503394241    4.26326e-13   6.55932e-10 DIIS
   @RHF iter  12:  -158.46230503394233    8.52651e-14   2.09388e-10 DIIS
   @RHF iter  13:  -158.46230503394298   -6.53699e-13   4.07904e-11 DIIS
  Energy and wave function converged.

  ==> Post-Iterations <==

    Orbital Energies [Eh]
    ---------------------

    Doubly Occupied:

       1A    -11.223041     2A    -11.220796     3A    -11.220232
       4A    -11.214899     5A     -1.012645     6A     -1.008073
       7A     -0.840888     8A     -0.833791     9A     -0.602117
      10A     -0.595778    11A     -0.595221    12A     -0.592111
      13A     -0.496705    14A     -0.494330    15A     -0.493856
      16A     -0.490039    17A     -0.486199    18A     -0.470698

    Virtual:

      19A      0.173850    20A      0.192668    21A      0.231870
      22A      0.237545    23A      0.244133    24A      0.261884
      25A      0.264673    26A      0.274480    27A      0.279203
      28A      0.288203    29A      0.293852    30A      0.335859
      31A      0.382303    32A      0.402173    33A      0.581090
      34A      0.595688    35A      0.598058    36A      0.606658
      37A      0.613028    38A      0.650930    39A      0.669433
      40A      0.673508    41A      0.706630    42A      0.745736
      43A      0.827808    44A      0.863033    45A      0.887556
      46A      0.890781    47A      0.894772    48A      0.896068
      49A      0.900361    50A      0.904920    51A      0.910917
      52A      0.917482    53A      0.935142    54A      0.941669
      55A      0.967999    56A      1.018489    57A      1.116167
      58A      1.121299    59A      1.129650    60A      1.135867
      61A      1.226881    62A      1.283943    63A      1.458464
      64A      1.472477    65A      1.480713    66A      1.496383
      67A      1.566137    68A      1.583076    69A      1.666277
      70A      1.673888    71A      1.687930    72A      1.697185
      73A      1.840654    74A      1.853208    75A      1.863947
      76A      1.873349    77A      1.880333    78A      1.893262
      79A      1.924777    80A      1.932240    81A      1.936583
      82A      1.942670    83A      1.944412    84A      1.948507
      85A      1.956493    86A      1.973174    87A      1.992291
      88A      2.012580    89A      2.088906    90A      2.100747
      91A      2.127424    92A      2.138511    93A      2.259489
      94A      2.276468    95A      2.301174    96A      2.315429
      97A      2.444851    98A      2.448763    99A      2.457794
     100A      2.476575   101A      2.551021   102A      2.564941
     103A      2.579221   104A      2.585856   105A      2.763779
     106A      2.769404   107A      2.781704   108A      2.794071
     109A      2.822382   110A      2.824490   111A      2.833292
     112A      2.835206   113A      2.933784   114A      2.941233
     115A      2.951006   116A      2.974501

    Final Occupation by Irrep:
              A
    DOCC [    18 ]

  @RHF Final Energy:  -158.46230503394298

   => Energetics <=

    Nuclear Repulsion Energy =            119.6070582855527960
    One-Electron Energy =                -448.3558867551467415
    Two-Electron Energy =                 170.2865234356509632
    Total Energy =                       -158.4623050339429824

Computation Completed

Properties will be evaluated at   0.000000,   0.000000,   0.000000 [a0]

Properties computed using the SCF density matrix

  Nuclear Dipole Moment: [e a0]
     X:     0.0737      Y:     0.0002      Z:     0.0483

  Electronic Dipole Moment: [e a0]
     X:    -0.0704      Y:    -0.0136      Z:    -0.0209

  Dipole Moment: [e a0]
     X:     0.0033      Y:    -0.0134      Z:     0.0274     Total:     0.0307

  Dipole Moment: [D]
     X:     0.0084      Y:    -0.0340      Z:     0.0697     Total:     0.0780

*** tstop() called on ds3 at Mon Apr 27 04:48:14 2020
Module time:
	user time   =       6.87 seconds =       0.11 minutes
	system time =       2.62 seconds =       0.04 minutes
	total time  =         17 seconds =       0.28 minutes
Total time:
	user time   =       6.87 seconds =       0.11 minutes
	system time =       2.62 seconds =       0.04 minutes
	total time  =         17 seconds =       0.28 minutes
                                     G D M A

                                 by Anthony Stone

                           version 2.2.06, 22 June 2011

               Distributed Multipoles from Gaussian wavefunctions

Starting at 4:48:14 on 27 Apr 2020

Using SCF density matrix from file ./SSI/SSI-135LEU-179LEU-1-dimer.test.25508.fchk

                         Distributed Multipole Analysis

Standard DMA

Positions and radii in angstrom
Multipole moments in atomic units, ea_0^k for rank k

C          x = -0.936151  y = -0.632254  z =  1.251168 angstrom
           Maximum rank =  0   Radius =  0.650 angstrom
                   Q00  =  -0.261600

C          x = -1.390151  y = -1.147254  z =  2.671168 angstrom
           Maximum rank =  0   Radius =  0.650 angstrom
                   Q00  =  -0.236576

H          x = -1.495151  y =  0.265746  z =  0.980168 angstrom
           Maximum rank =  0   Radius =  0.325 angstrom
                   Q00  =   0.084604

H          x =  0.122849  y = -0.383254  z =  1.306168 angstrom
           Maximum rank =  0   Radius =  0.325 angstrom
                   Q00  =   0.080730

H          x = -1.090151  y = -1.405254  z =  0.497168 angstrom
           Maximum rank =  0   Radius =  0.325 angstrom
                   Q00  =   0.083349

H          x = -1.179151  y = -0.373254  z =  3.403168 angstrom
           Maximum rank =  0   Radius =  0.325 angstrom
                   Q00  =   0.086241

H          x = -2.472495  y = -1.333618  z =  2.609528 angstrom
           Maximum rank =  0   Radius =  0.325 angstrom
                   Q00  =   0.080521

H          x = -0.853491  y = -2.070047  z =  2.936588 angstrom
           Maximum rank =  0   Radius =  0.325 angstrom
                   Q00  =   0.085151

C          x =  1.469849  y =  1.004746  z = -1.260832 angstrom
           Maximum rank =  0   Radius =  0.650 angstrom
                   Q00  =  -0.263428

C          x =  0.849849  y =  0.774746  z = -2.665832 angstrom
           Maximum rank =  0   Radius =  0.650 angstrom
                   Q00  =  -0.199872

H          x =  1.243849  y =  2.009746  z = -0.900832 angstrom
           Maximum rank =  0   Radius =  0.325 angstrom
                   Q00  =   0.079747

H          x =  1.056849  y =  0.275746  z = -0.569832 angstrom
           Maximum rank =  0   Radius =  0.325 angstrom
                   Q00  =   0.085238

H          x =  2.550849  y =  0.865746  z = -1.294832 angstrom
           Maximum rank =  0   Radius =  0.325 angstrom
                   Q00  =   0.078296

H          x =  1.022849  y = -0.256254  z = -2.969832 angstrom
           Maximum rank =  0   Radius =  0.325 angstrom
                   Q00  =   0.081396

H          x =  1.405439  y =  1.448211  z = -3.334982 angstrom
           Maximum rank =  0   Radius =  0.325 angstrom
                   Q00  =   0.065137

H          x = -0.233619  y =  0.956647  z = -2.610972 angstrom
           Maximum rank =  0   Radius =  0.325 angstrom
                   Q00  =   0.071064

Total multipoles referred to origin at
           x =   0.000000,  y =    0.000000,  z =    0.000000 angstrom
                   Q00  =  -0.000000

Finished at 4:48:14 on 27 Apr 2020

  DMA results are available in the Python driver through the
	  variable('DMA DISTRIBUTED MULTIPOLES')
  and
	  variable('DMA TOTAL MULTIPOLES')
  commands.

    Psi4 stopped on: Monday, 27 April 2020 04:48AM
    Psi4 wall time for execution: 0:00:16.62

*** Psi4 exiting successfully. Buy a developer a beer!
