                               Psi4 1.3.2 release

  ==> Input File <==

--------------------------------------------------------------------------
import numpy as np
set {scf_type pk
basis cc-pvdz
d_convergence 10
gdma_switch   0
gdma_limit    0
gdma_origin   [ 0.0,  0.0,  0.0 ]
}
molecule test {
    units Angstrom
    0 1
    --
    0 1
    C               -0.518512102147980     1.836783095252329    -1.704074157284567
    C               -0.690512102147980     0.579783095252329     0.466925842715433
    C               -0.841512102147980     0.592783095252329    -0.916074157284567
    C               -0.888512102147980    -0.600216904747671     1.186925842715433
    C               -1.219512102147980    -0.582216904747671    -1.570074157284567
    C               -1.251512102147980    -1.754216904747671     0.513925842715433
    C               -1.427512102147980    -1.753216904747671    -0.853074157284567
    H               -0.392512102147980     1.476783095252329     0.988925842715433
    H               -0.758512102147980    -0.615216904747671     2.260925842715434
    H               -0.056512102147980     1.531783095252329    -2.645074157284566
    H                0.236487897852020     2.403783095252329    -1.157074157284566
    H               -1.336512102147980    -0.585216904747671    -2.645074157284566
    H               -1.422512102147980    -2.662216904747670     1.068925842715433
    H               -1.715512102147980    -2.664216904747671    -1.358074157284566
    H               -1.368332102147980     2.496003095252330    -1.934804157284566
    C                2.979487897852020     1.184783095252329     0.824925842715433
    C                2.948487897852020     0.064783095252329     1.833925842715433
    H                3.386487897852020     0.830783095252329    -0.122074157284567
    H                1.969487897852020     1.549783095252329     0.648925842715433
    H                3.591487897852021     2.001783095252329     1.204925842715433
    H                2.500487897852020    -0.813216904747671     1.364925842715433
    H                2.276487897852020     0.385783095252329     2.630925842715434
    H                3.920034897852020    -0.205126904747671     2.273515842715434

}
e, wfn = energy('scf', return_wfn=True)
gdma(wfn)
dmavals = variable('DMA DISTRIBUTED MULTIPOLES')
charges = np.array(dmavals)
print(charges)
np.save('SSI-022PHE-031ILE-1-dimer.npy', np.array(charges))--------------------------------------------------------------------------

*** tstart() called on ds3
*** at Mon Apr 27 16:24:51 2020

   => Loading Basis Set <=

    Name: CC-PVDZ
    Role: ORBITAL
    Keyword: BASIS
    atoms 1-7, 16-17  entry C          line   138 file /theoryfs2/ds/metcalf/miniconda2/envs/tf2gpu/share/psi4/basis/cc-pvdz.gbs
    atoms 8-15, 18-23 entry H          line    22 file /theoryfs2/ds/metcalf/miniconda2/envs/tf2gpu/share/psi4/basis/cc-pvdz.gbs

         ---------------------------------------------------------
                                   SCF
               by Justin Turney, Rob Parrish, Andy Simmonett
                          and Daniel G. A. Smith
                              RHF Reference
                        1 Threads,    500 MiB Core
         ---------------------------------------------------------

  ==> Geometry <==

    Molecular point group: c1
    Full point group: C1

    Geometry (in Angstrom), charge = 0, multiplicity = 1:

       Center              X                  Y                   Z               Mass
    ------------   -----------------  -----------------  -----------------  -----------------
         C           -0.518512102148     1.836783095252    -1.704074157285    12.000000000000
         C           -0.690512102148     0.579783095252     0.466925842715    12.000000000000
         C           -0.841512102148     0.592783095252    -0.916074157285    12.000000000000
         C           -0.888512102148    -0.600216904748     1.186925842715    12.000000000000
         C           -1.219512102148    -0.582216904748    -1.570074157285    12.000000000000
         C           -1.251512102148    -1.754216904748     0.513925842715    12.000000000000
         C           -1.427512102148    -1.753216904748    -0.853074157285    12.000000000000
         H           -0.392512102148     1.476783095252     0.988925842715     1.007825032230
         H           -0.758512102148    -0.615216904748     2.260925842715     1.007825032230
         H           -0.056512102148     1.531783095252    -2.645074157285     1.007825032230
         H            0.236487897852     2.403783095252    -1.157074157285     1.007825032230
         H           -1.336512102148    -0.585216904748    -2.645074157285     1.007825032230
         H           -1.422512102148    -2.662216904748     1.068925842715     1.007825032230
         H           -1.715512102148    -2.664216904748    -1.358074157285     1.007825032230
         H           -1.368332102148     2.496003095252    -1.934804157285     1.007825032230
         C            2.979487897852     1.184783095252     0.824925842715    12.000000000000
         C            2.948487897852     0.064783095252     1.833925842715    12.000000000000
         H            3.386487897852     0.830783095252    -0.122074157285     1.007825032230
         H            1.969487897852     1.549783095252     0.648925842715     1.007825032230
         H            3.591487897852     2.001783095252     1.204925842715     1.007825032230
         H            2.500487897852    -0.813216904748     1.364925842715     1.007825032230
         H            2.276487897852     0.385783095252     2.630925842715     1.007825032230
         H            3.920034897852    -0.205126904748     2.273515842715     1.007825032230

  Running in c1 symmetry.

  Rotational constants: A =      0.06292  B =      0.03152  C =      0.02417 [cm^-1]
  Rotational constants: A =   1886.34083  B =    944.83203  C =    724.55606 [MHz]
  Nuclear repulsion =  414.895340717123929

  Charge       = 0
  Multiplicity = 1
  Electrons    = 68
  Nalpha       = 34
  Nbeta        = 34

  ==> Algorithm <==

  SCF Algorithm Type is PK.
  DIIS enabled.
  MOM disabled.
  Fractional occupation disabled.
  Guess Type is SAD.
  Energy threshold   = 1.00e-06
  Density threshold  = 1.00e-10
  Integral threshold = 0.00e+00

  ==> Primary Basis <==

  Basis Set: CC-PVDZ
    Blend: CC-PVDZ
    Number of shells: 96
    Number of basis function: 196
    Number of Cartesian functions: 205
    Spherical Harmonics?: true
    Max angular momentum: 2

  ==> Pre-Iterations <==

   -------------------------------------------------------
    Irrep   Nso     Nmo     Nalpha   Nbeta   Ndocc  Nsocc
   -------------------------------------------------------
     A        196     196       0       0       0       0
   -------------------------------------------------------
    Total     196     196      34      34      34       0
   -------------------------------------------------------

  ==> Integral Setup <==

  Using integral reordering PK algorithm.
  Sizing the integral batches needed.
  Building batch lookup table.
   Calculation information:
      Number of atoms:                  23
      Number of AO shells:              96
      Number of primitives:            268
      Number of atomic orbitals:       205
      Number of basis functions:       196

      Integral cutoff                 1.00e-12
      Number of threads:                 1

	Batch   1 pq = [       0,    9405] index = [             0,44231715] size =     44231715
	Batch   2 pq = [    9405,   13301] index = [      44231715,88464951] size =     44233236
	Batch   3 pq = [   13301,   16290] index = [      88464951,132690195] size =     44225244
	Batch   4 pq = [   16290,   18810] index = [     132690195,176917455] size =     44227260
	Batch   5 pq = [   18810,   19306] index = [     176917455,186370471] size =      9453016
  Task number: 17
  Buffer size: 11059200
  Buffer per thread: 2
  We computed 10289718 shell quartets total.
  Whereas there are 10841496 unique shell quartets.

  ==> DiskJK: Disk-Based J/K Matrices <==

    J tasked:                  Yes
    K tasked:                  Yes
    wK tasked:                  No
    Memory [MiB]:              375
    Schwarz Cutoff:          1E-12

    OpenMP threads:              1

  Minimum eigenvalue in the overlap matrix is 3.0389247054E-04.
  Using Symmetric Orthogonalization.

  SCF Guess: Superposition of Atomic Densities via on-the-fly atomic UHF.

  ==> Iterations <==

                        Total Energy        Delta E     RMS |[F,P]|

   @RHF iter SAD:  -347.94853852839310   -3.47949e+02   0.00000e+00
   @RHF iter   1:  -348.76071127972125   -8.12173e-01   2.92852e-03 DIIS
   @RHF iter   2:  -348.95574637909817   -1.95035e-01   1.23028e-03 DIIS
   @RHF iter   3:  -348.98724824128556   -3.15019e-02   2.60353e-04 DIIS
   @RHF iter   4:  -348.98976366477973   -2.51542e-03   5.03283e-05 DIIS
   @RHF iter   5:  -348.98983308765008   -6.94229e-05   1.64506e-05 DIIS
   @RHF iter   6:  -348.98983989161741   -6.80397e-06   4.51226e-06 DIIS
   @RHF iter   7:  -348.98984049092337   -5.99306e-07   1.40496e-06 DIIS
   @RHF iter   8:  -348.98984056231001   -7.13866e-08   4.12551e-07 DIIS
   @RHF iter   9:  -348.98984057661482   -1.43048e-08   2.07797e-07 DIIS
   @RHF iter  10:  -348.98984058060847   -3.99365e-09   9.24624e-08 DIIS
   @RHF iter  11:  -348.98984058171794   -1.10947e-09   2.81030e-08 DIIS
   @RHF iter  12:  -348.98984058178934   -7.13953e-11   1.00364e-08 DIIS
   @RHF iter  13:  -348.98984058179548   -6.13909e-12   3.67617e-09 DIIS
   @RHF iter  14:  -348.98984058179275    2.72848e-12   7.61157e-10 DIIS
   @RHF iter  15:  -348.98984058179366   -9.09495e-13   2.94322e-10 DIIS
   @RHF iter  16:  -348.98984058179565   -1.98952e-12   1.66215e-10 DIIS
   @RHF iter  17:  -348.98984058179514    5.11591e-13   7.11175e-11 DIIS
  Energy and wave function converged.

  ==> Post-Iterations <==

    Orbital Energies [Eh]
    ---------------------

    Doubly Occupied:

       1A    -11.241184     2A    -11.235402     3A    -11.233878
       4A    -11.231449     5A    -11.231078     6A    -11.229531
       7A    -11.228597     8A    -11.211988     9A    -11.211136
      10A     -1.155090    11A     -1.045854    12A     -1.020208
      13A     -1.012744    14A     -0.931547    15A     -0.832252
      16A     -0.826730    17A     -0.795598    18A     -0.692978
      19A     -0.632626    20A     -0.631079    21A     -0.598487
      22A     -0.597040    23A     -0.583143    24A     -0.576244
      25A     -0.561234    26A     -0.534110    27A     -0.504598
      28A     -0.489126    29A     -0.487013    30A     -0.481795
      31A     -0.478342    32A     -0.475197    33A     -0.332790
      34A     -0.323662

    Virtual:

      35A      0.134476    36A      0.140544    37A      0.173069
      38A      0.195238    39A      0.200709    40A      0.220756
      41A      0.235591    42A      0.240451    43A      0.255875
      44A      0.260938    45A      0.272428    46A      0.281494
      47A      0.283064    48A      0.291059    49A      0.304086
      50A      0.354750    51A      0.372562    52A      0.382345
      53A      0.409911    54A      0.454033    55A      0.463487
      56A      0.479621    57A      0.491005    58A      0.560414
      59A      0.582334    60A      0.600292    61A      0.606129
      62A      0.612108    63A      0.650843    64A      0.667526
      65A      0.682867    66A      0.685932    67A      0.700110
      68A      0.713709    69A      0.719266    70A      0.739038
      71A      0.740363    72A      0.749344    73A      0.768257
      74A      0.776887    75A      0.794504    76A      0.808234
      77A      0.846235    78A      0.853819    79A      0.861454
      80A      0.867327    81A      0.873263    82A      0.876220
      83A      0.891625    84A      0.895692    85A      0.906846
      86A      0.915557    87A      0.918058    88A      0.925863
      89A      0.939809    90A      0.950645    91A      0.959030
      92A      0.979441    93A      0.995656    94A      1.013663
      95A      1.021958    96A      1.055895    97A      1.114922
      98A      1.123487    99A      1.135318   100A      1.149641
     101A      1.152167   102A      1.163720   103A      1.181569
     104A      1.237496   105A      1.239316   106A      1.249071
     107A      1.261682   108A      1.278650   109A      1.302421
     110A      1.310333   111A      1.324809   112A      1.348267
     113A      1.416888   114A      1.471791   115A      1.498589
     116A      1.511911   117A      1.515567   118A      1.547948
     119A      1.589475   120A      1.606191   121A      1.681941
     122A      1.691917   123A      1.698662   124A      1.708314
     125A      1.744640   126A      1.760898   127A      1.767699
     128A      1.793642   129A      1.809537   130A      1.859717
     131A      1.864059   132A      1.870757   133A      1.889044
     134A      1.897365   135A      1.908103   136A      1.919258
     137A      1.926243   138A      1.927997   139A      1.935035
     140A      1.953677   141A      1.957404   142A      1.962118
     143A      1.966767   144A      1.978355   145A      1.985471
     146A      1.988651   147A      1.991564   148A      2.003484
     149A      2.046943   150A      2.057431   151A      2.073333
     152A      2.114387   153A      2.115822   154A      2.150615
     155A      2.159272   156A      2.167748   157A      2.171855
     158A      2.180302   159A      2.185933   160A      2.252427
     161A      2.278114   162A      2.297342   163A      2.304869
     164A      2.311053   165A      2.320372   166A      2.326230
     167A      2.333015   168A      2.439007   169A      2.468225
     170A      2.472915   171A      2.486944   172A      2.499134
     173A      2.546299   174A      2.575122   175A      2.609466
     176A      2.617667   177A      2.739846   178A      2.756537
     179A      2.774005   180A      2.779692   181A      2.787554
     182A      2.807208   183A      2.811640   184A      2.848540
     185A      2.862580   186A      2.873289   187A      2.891912
     188A      2.960822   189A      2.973267   190A      2.989157
     191A      3.025492   192A      3.033144   193A      3.160267
     194A      3.204789   195A      3.305034   196A      3.980121

    Final Occupation by Irrep:
              A
    DOCC [    34 ]

  @RHF Final Energy:  -348.98984058179514

   => Energetics <=

    Nuclear Repulsion Energy =            414.8953407171239292
    One-Electron Energy =               -1292.4629060127426783
    Two-Electron Energy =                 528.5777247138236135
    Total Energy =                       -348.9898405817951925

Computation Completed

Properties will be evaluated at   0.000000,   0.000000,   0.000000 [a0]

Properties computed using the SCF density matrix

  Nuclear Dipole Moment: [e a0]
     X:    10.1533      Y:     4.8104      Z:     2.4185

  Electronic Dipole Moment: [e a0]
     X:   -10.1653      Y:    -4.7555      Z:    -2.5112

  Dipole Moment: [e a0]
     X:    -0.0120      Y:     0.0549      Z:    -0.0927     Total:     0.1084

  Dipole Moment: [D]
     X:    -0.0305      Y:     0.1396      Z:    -0.2357     Total:     0.2756

*** tstop() called on ds3 at Mon Apr 27 16:26:32 2020
Module time:
	user time   =      73.76 seconds =       1.23 minutes
	system time =      29.99 seconds =       0.50 minutes
	total time  =        101 seconds =       1.68 minutes
Total time:
	user time   =      73.76 seconds =       1.23 minutes
	system time =      29.99 seconds =       0.50 minutes
	total time  =        101 seconds =       1.68 minutes
                                     G D M A

                                 by Anthony Stone

                           version 2.2.06, 22 June 2011

               Distributed Multipoles from Gaussian wavefunctions

Starting at 16:26:32 on 27 Apr 2020

Using SCF density matrix from file ./SSI/SSI-022PHE-031ILE-1-dimer.test.26770.fchk

                         Distributed Multipole Analysis

Standard DMA

Positions and radii in angstrom
Multipole moments in atomic units, ea_0^k for rank k

C          x = -0.518512  y =  1.836783  z = -1.704074 angstrom
           Maximum rank =  0   Radius =  0.650 angstrom
                   Q00  =  -0.200225

C          x = -0.690512  y =  0.579783  z =  0.466926 angstrom
           Maximum rank =  0   Radius =  0.650 angstrom
                   Q00  =  -0.089572

C          x = -0.841512  y =  0.592783  z = -0.916074 angstrom
           Maximum rank =  0   Radius =  0.650 angstrom
                   Q00  =  -0.107277

C          x = -0.888512  y = -0.600217  z =  1.186926 angstrom
           Maximum rank =  0   Radius =  0.650 angstrom
                   Q00  =  -0.072637

C          x = -1.219512  y = -0.582217  z = -1.570074 angstrom
           Maximum rank =  0   Radius =  0.650 angstrom
                   Q00  =  -0.047248

C          x = -1.251512  y = -1.754217  z =  0.513926 angstrom
           Maximum rank =  0   Radius =  0.650 angstrom
                   Q00  =  -0.022526

C          x = -1.427512  y = -1.753217  z = -0.853074 angstrom
           Maximum rank =  0   Radius =  0.650 angstrom
                   Q00  =  -0.064002

H          x = -0.392512  y =  1.476783  z =  0.988926 angstrom
           Maximum rank =  0   Radius =  0.325 angstrom
                   Q00  =   0.058325

H          x = -0.758512  y = -0.615217  z =  2.260926 angstrom
           Maximum rank =  0   Radius =  0.325 angstrom
                   Q00  =   0.066583

H          x = -0.056512  y =  1.531783  z = -2.645074 angstrom
           Maximum rank =  0   Radius =  0.325 angstrom
                   Q00  =   0.097548

H          x =  0.236488  y =  2.403783  z = -1.157074 angstrom
           Maximum rank =  0   Radius =  0.325 angstrom
                   Q00  =   0.096241

H          x = -1.336512  y = -0.585217  z = -2.645074 angstrom
           Maximum rank =  0   Radius =  0.325 angstrom
                   Q00  =   0.057053

H          x = -1.422512  y = -2.662217  z =  1.068926 angstrom
           Maximum rank =  0   Radius =  0.325 angstrom
                   Q00  =   0.057580

H          x = -1.715512  y = -2.664217  z = -1.358074 angstrom
           Maximum rank =  0   Radius =  0.325 angstrom
                   Q00  =   0.063736

H          x = -1.368332  y =  2.496003  z = -1.934804 angstrom
           Maximum rank =  0   Radius =  0.325 angstrom
                   Q00  =   0.105474

C          x =  2.979488  y =  1.184783  z =  0.824926 angstrom
           Maximum rank =  0   Radius =  0.650 angstrom
                   Q00  =  -0.223566

C          x =  2.948488  y =  0.064783  z =  1.833926 angstrom
           Maximum rank =  0   Radius =  0.650 angstrom
                   Q00  =  -0.237716

H          x =  3.386488  y =  0.830783  z = -0.122074 angstrom
           Maximum rank =  0   Radius =  0.325 angstrom
                   Q00  =   0.076232

H          x =  1.969488  y =  1.549783  z =  0.648926 angstrom
           Maximum rank =  0   Radius =  0.325 angstrom
                   Q00  =   0.078808

H          x =  3.591488  y =  2.001783  z =  1.204926 angstrom
           Maximum rank =  0   Radius =  0.325 angstrom
                   Q00  =   0.072077

H          x =  2.500488  y = -0.813217  z =  1.364926 angstrom
           Maximum rank =  0   Radius =  0.325 angstrom
                   Q00  =   0.083999

H          x =  2.276488  y =  0.385783  z =  2.630926 angstrom
           Maximum rank =  0   Radius =  0.325 angstrom
                   Q00  =   0.072150

H          x =  3.920035  y = -0.205127  z =  2.273516 angstrom
           Maximum rank =  0   Radius =  0.325 angstrom
                   Q00  =   0.078963

Total multipoles referred to origin at
           x =   0.000000,  y =    0.000000,  z =    0.000000 angstrom
                   Q00  =  -0.000000

Finished at 16:26:33 on 27 Apr 2020

  DMA results are available in the Python driver through the
	  variable('DMA DISTRIBUTED MULTIPOLES')
  and
	  variable('DMA TOTAL MULTIPOLES')
  commands.

    Psi4 stopped on: Monday, 27 April 2020 04:26PM
    Psi4 wall time for execution: 0:01:42.02

*** Psi4 exiting successfully. Buy a developer a beer!
