                               Psi4 1.3.2 release

  ==> Input File <==

--------------------------------------------------------------------------
import numpy as np
set {scf_type pk
basis cc-pvdz
d_convergence 10
gdma_switch   0
gdma_limit    0
gdma_origin   [ 0.0,  0.0,  0.0 ]
}
molecule test {
    units Angstrom
    0 1
    --
    0 1
    C                2.404123307080530    -1.047319727474679     0.588143434827633
    C                2.701123307080530    -2.508319727474679     0.933143434827633
    H                1.868123307080531    -0.978319727474679    -0.359856565172367
    H                1.792123307080530    -0.597319727474679     1.368143434827632
    H                3.317123307080530    -0.456319727474679     0.538143434827633
    H                3.285123307080530    -2.523319727474679     1.855143434827633
    H                3.298899307080530    -2.982245727474679     0.140643434827633
    H                1.772396307080530    -3.074721727474679     1.096403434827632
    C               -1.852876692919469    -0.900319727474679    -1.912856565172367
    C               -1.357876692919469    -0.243319727474679     0.487143434827633
    C               -1.230876692919469    -0.013319727474679    -0.877856565172367
    C               -0.770876692919469     0.620680272525321     1.424143434827633
    C               -0.054876692919469     1.718680272525321     0.991143434827633
    C               -0.497876692919469     1.089680272525321    -1.280856565172368
    C                0.066123307080531     1.965680272525321    -0.363856565172367
    H               -1.920876692919469    -1.096319727474679     0.838143434827633
    H               -0.867876692919469     0.423680272525321     2.481143434827632
    H               -2.180876692919470    -0.284319727474679    -2.751856565172367
    H               -2.724876692919469    -1.362319727474679    -1.450856565172367
    H                0.401123307080531     2.386680272525321     1.706143434827633
    H               -0.388876692919469     1.294680272525321    -2.332856565172368
    H                0.615123307080531     2.830680272525321    -0.709856565172367
    H               -1.195302692919469    -1.702430727474679    -2.279206565172368

}
e, wfn = energy('scf', return_wfn=True)
gdma(wfn)
dmavals = variable('DMA DISTRIBUTED MULTIPOLES')
charges = np.array(dmavals)
print(charges)
np.save('SSI-072ILE-077PHE-1-dimer.npy', np.array(charges))--------------------------------------------------------------------------

*** tstart() called on ds3
*** at Tue Apr 28 02:56:19 2020

   => Loading Basis Set <=

    Name: CC-PVDZ
    Role: ORBITAL
    Keyword: BASIS
    atoms 1-2, 9-15  entry C          line   138 file /theoryfs2/ds/metcalf/miniconda2/envs/tf2gpu/share/psi4/basis/cc-pvdz.gbs
    atoms 3-8, 16-23 entry H          line    22 file /theoryfs2/ds/metcalf/miniconda2/envs/tf2gpu/share/psi4/basis/cc-pvdz.gbs

         ---------------------------------------------------------
                                   SCF
               by Justin Turney, Rob Parrish, Andy Simmonett
                          and Daniel G. A. Smith
                              RHF Reference
                        1 Threads,    500 MiB Core
         ---------------------------------------------------------

  ==> Geometry <==

    Molecular point group: c1
    Full point group: C1

    Geometry (in Angstrom), charge = 0, multiplicity = 1:

       Center              X                  Y                   Z               Mass
    ------------   -----------------  -----------------  -----------------  -----------------
         C            2.404123307081    -1.047319727475     0.588143434828    12.000000000000
         C            2.701123307081    -2.508319727475     0.933143434828    12.000000000000
         H            1.868123307081    -0.978319727475    -0.359856565172     1.007825032230
         H            1.792123307081    -0.597319727475     1.368143434828     1.007825032230
         H            3.317123307081    -0.456319727475     0.538143434828     1.007825032230
         H            3.285123307081    -2.523319727475     1.855143434828     1.007825032230
         H            3.298899307081    -2.982245727475     0.140643434828     1.007825032230
         H            1.772396307081    -3.074721727475     1.096403434828     1.007825032230
         C           -1.852876692919    -0.900319727475    -1.912856565172    12.000000000000
         C           -1.357876692919    -0.243319727475     0.487143434828    12.000000000000
         C           -1.230876692919    -0.013319727475    -0.877856565172    12.000000000000
         C           -0.770876692919     0.620680272525     1.424143434828    12.000000000000
         C           -0.054876692919     1.718680272525     0.991143434828    12.000000000000
         C           -0.497876692919     1.089680272525    -1.280856565172    12.000000000000
         C            0.066123307081     1.965680272525    -0.363856565172    12.000000000000
         H           -1.920876692919    -1.096319727475     0.838143434828     1.007825032230
         H           -0.867876692919     0.423680272525     2.481143434828     1.007825032230
         H           -2.180876692919    -0.284319727475    -2.751856565172     1.007825032230
         H           -2.724876692919    -1.362319727475    -1.450856565172     1.007825032230
         H            0.401123307081     2.386680272525     1.706143434828     1.007825032230
         H           -0.388876692919     1.294680272525    -2.332856565172     1.007825032230
         H            0.615123307081     2.830680272525    -0.709856565172     1.007825032230
         H           -1.195302692919    -1.702430727475    -2.279206565172     1.007825032230

  Running in c1 symmetry.

  Rotational constants: A =      0.05849  B =      0.03208  C =      0.02656 [cm^-1]
  Rotational constants: A =   1753.36560  B =    961.65948  C =    796.33834 [MHz]
  Nuclear repulsion =  417.433624223006632

  Charge       = 0
  Multiplicity = 1
  Electrons    = 68
  Nalpha       = 34
  Nbeta        = 34

  ==> Algorithm <==

  SCF Algorithm Type is PK.
  DIIS enabled.
  MOM disabled.
  Fractional occupation disabled.
  Guess Type is SAD.
  Energy threshold   = 1.00e-06
  Density threshold  = 1.00e-10
  Integral threshold = 0.00e+00

  ==> Primary Basis <==

  Basis Set: CC-PVDZ
    Blend: CC-PVDZ
    Number of shells: 96
    Number of basis function: 196
    Number of Cartesian functions: 205
    Spherical Harmonics?: true
    Max angular momentum: 2

  ==> Pre-Iterations <==

   -------------------------------------------------------
    Irrep   Nso     Nmo     Nalpha   Nbeta   Ndocc  Nsocc
   -------------------------------------------------------
     A        196     196       0       0       0       0
   -------------------------------------------------------
    Total     196     196      34      34      34       0
   -------------------------------------------------------

  ==> Integral Setup <==

  Using integral reordering PK algorithm.
  Sizing the integral batches needed.
  Building batch lookup table.
   Calculation information:
      Number of atoms:                  23
      Number of AO shells:              96
      Number of primitives:            268
      Number of atomic orbitals:       205
      Number of basis functions:       196

      Integral cutoff                 1.00e-12
      Number of threads:                 1

	Batch   1 pq = [       0,    9405] index = [             0,44231715] size =     44231715
	Batch   2 pq = [    9405,   13301] index = [      44231715,88464951] size =     44233236
	Batch   3 pq = [   13301,   16290] index = [      88464951,132690195] size =     44225244
	Batch   4 pq = [   16290,   18810] index = [     132690195,176917455] size =     44227260
	Batch   5 pq = [   18810,   19306] index = [     176917455,186370471] size =      9453016
  Task number: 17
  Buffer size: 11059200
  Buffer per thread: 2
  We computed 10320843 shell quartets total.
  Whereas there are 10841496 unique shell quartets.

  ==> DiskJK: Disk-Based J/K Matrices <==

    J tasked:                  Yes
    K tasked:                  Yes
    wK tasked:                  No
    Memory [MiB]:              375
    Schwarz Cutoff:          1E-12

    OpenMP threads:              1

  Minimum eigenvalue in the overlap matrix is 2.9856647635E-04.
  Using Symmetric Orthogonalization.

  SCF Guess: Superposition of Atomic Densities via on-the-fly atomic UHF.

  ==> Iterations <==

                        Total Energy        Delta E     RMS |[F,P]|

   @RHF iter SAD:  -347.93229973766785   -3.47932e+02   0.00000e+00
   @RHF iter   1:  -348.76433957675692   -8.32040e-01   2.91175e-03 DIIS
   @RHF iter   2:  -348.95809966587262   -1.93760e-01   1.21526e-03 DIIS
   @RHF iter   3:  -348.98886527164075   -3.07656e-02   2.59602e-04 DIIS
   @RHF iter   4:  -348.99134138174480   -2.47611e-03   5.64892e-05 DIIS
   @RHF iter   5:  -348.99142301990446   -8.16382e-05   1.92861e-05 DIIS
   @RHF iter   6:  -348.99143208140987   -9.06151e-06   5.07743e-06 DIIS
   @RHF iter   7:  -348.99143281182398   -7.30414e-07   1.22325e-06 DIIS
   @RHF iter   8:  -348.99143286257731   -5.07533e-08   3.10504e-07 DIIS
   @RHF iter   9:  -348.99143286892507   -6.34776e-09   1.39059e-07 DIIS
   @RHF iter  10:  -348.99143287032939   -1.40432e-09   6.39681e-08 DIIS
   @RHF iter  11:  -348.99143287083439   -5.04997e-10   2.65502e-08 DIIS
   @RHF iter  12:  -348.99143287090664   -7.22480e-11   1.24161e-08 DIIS
   @RHF iter  13:  -348.99143287091931   -1.26761e-11   4.08438e-09 DIIS
   @RHF iter  14:  -348.99143287092062   -1.30740e-12   9.83032e-10 DIIS
   @RHF iter  15:  -348.99143287092056    5.68434e-14   3.91230e-10 DIIS
   @RHF iter  16:  -348.99143287092039    1.70530e-13   1.59039e-10 DIIS
   @RHF iter  17:  -348.99143287091891    1.47793e-12   6.52535e-11 DIIS
  Energy and wave function converged.

  ==> Post-Iterations <==

    Orbital Energies [Eh]
    ---------------------

    Doubly Occupied:

       1A    -11.238704     2A    -11.234936     3A    -11.233246
       4A    -11.231661     5A    -11.230078     6A    -11.228881
       7A    -11.227482     8A    -11.212156     9A    -11.203589
      10A     -1.156055    11A     -1.049004    12A     -1.010609
      13A     -1.007093    14A     -0.933744    15A     -0.828115
      16A     -0.826978    17A     -0.795581    18A     -0.692591
      19A     -0.633949    20A     -0.629764    21A     -0.588852
      22A     -0.585880    23A     -0.580364    24A     -0.578040
      25A     -0.564324    26A     -0.537633    27A     -0.498866
      28A     -0.487541    29A     -0.485162    30A     -0.482033
      31A     -0.475022    32A     -0.469476    33A     -0.330620
      34A     -0.324965

    Virtual:

      35A      0.135036    36A      0.141773    37A      0.175458
      38A      0.198391    39A      0.202002    40A      0.216598
      41A      0.237645    42A      0.251272    43A      0.251781
      44A      0.255836    45A      0.270095    46A      0.275836
      47A      0.283636    48A      0.292061    49A      0.304526
      50A      0.323185    51A      0.369147    52A      0.377150
      53A      0.403867    54A      0.454361    55A      0.463733
      56A      0.480444    57A      0.493967    58A      0.564794
      59A      0.576316    60A      0.591196    61A      0.604537
      62A      0.606974    63A      0.639262    64A      0.655713
      65A      0.681900    66A      0.683354    67A      0.684205
      68A      0.704627    69A      0.743461    70A      0.747863
      71A      0.754473    72A      0.757026    73A      0.766369
      74A      0.778805    75A      0.797735    76A      0.828653
      77A      0.849270    78A      0.857955    79A      0.863063
      80A      0.874835    81A      0.877918    82A      0.892801
      83A      0.899835    84A      0.901365    85A      0.902131
      86A      0.912066    87A      0.923189    88A      0.927154
      89A      0.930805    90A      0.937716    91A      0.942321
      92A      0.983906    93A      0.997227    94A      1.004603
      95A      1.035115    96A      1.052086    97A      1.123692
      98A      1.131452    99A      1.141408   100A      1.148179
     101A      1.155602   102A      1.169802   103A      1.196568
     104A      1.232039   105A      1.242628   106A      1.253692
     107A      1.265688   108A      1.279561   109A      1.302011
     110A      1.310050   111A      1.326512   112A      1.332640
     113A      1.415999   114A      1.478170   115A      1.490777
     116A      1.512619   117A      1.518127   118A      1.556157
     119A      1.594300   120A      1.601139   121A      1.667318
     122A      1.689859   123A      1.695411   124A      1.716320
     125A      1.733197   126A      1.753516   127A      1.768282
     128A      1.793160   129A      1.810053   130A      1.858315
     131A      1.880081   132A      1.883980   133A      1.892639
     134A      1.899728   135A      1.907476   136A      1.909138
     137A      1.921478   138A      1.936996   139A      1.942979
     140A      1.952762   141A      1.955062   142A      1.961487
     143A      1.965922   144A      1.968476   145A      1.979914
     146A      1.989774   147A      2.000660   148A      2.013232
     149A      2.059880   150A      2.060872   151A      2.076798
     152A      2.096790   153A      2.119266   154A      2.128045
     155A      2.161021   156A      2.163236   157A      2.178540
     158A      2.182133   159A      2.192865   160A      2.265449
     161A      2.282912   162A      2.292289   163A      2.304689
     164A      2.309145   165A      2.315554   166A      2.325263
     167A      2.342440   168A      2.460043   169A      2.470868
     170A      2.477377   171A      2.484835   172A      2.503735
     173A      2.551364   174A      2.562927   175A      2.583716
     176A      2.623374   177A      2.742946   178A      2.762710
     179A      2.766276   180A      2.770852   181A      2.788814
     182A      2.808206   183A      2.818894   184A      2.853297
     185A      2.869196   186A      2.872157   187A      2.885455
     188A      2.958294   189A      2.977401   190A      3.004719
     191A      3.027117   192A      3.033915   193A      3.159725
     194A      3.210942   195A      3.307758   196A      3.979846

    Final Occupation by Irrep:
              A
    DOCC [    34 ]

  @RHF Final Energy:  -348.99143287091891

   => Energetics <=

    Nuclear Repulsion Energy =            417.4336242230066318
    One-Electron Energy =               -1297.6641248727155471
    Two-Electron Energy =                 531.2390677787899449
    Total Energy =                       -348.9914328709189704

Computation Completed

Properties will be evaluated at   0.000000,   0.000000,   0.000000 [a0]

Properties computed using the SCF density matrix

  Nuclear Dipole Moment: [e a0]
     X:     6.6292      Y:    -7.6140      Z:     0.1307

  Electronic Dipole Moment: [e a0]
     X:    -6.7476      Y:     7.6265      Z:    -0.2272

  Dipole Moment: [e a0]
     X:    -0.1185      Y:     0.0125      Z:    -0.0965     Total:     0.1533

  Dipole Moment: [D]
     X:    -0.3011      Y:     0.0317      Z:    -0.2453     Total:     0.3897

*** tstop() called on ds3 at Tue Apr 28 02:57:51 2020
Module time:
	user time   =      67.90 seconds =       1.13 minutes
	system time =      26.62 seconds =       0.44 minutes
	total time  =         92 seconds =       1.53 minutes
Total time:
	user time   =      67.90 seconds =       1.13 minutes
	system time =      26.62 seconds =       0.44 minutes
	total time  =         92 seconds =       1.53 minutes
                                     G D M A

                                 by Anthony Stone

                           version 2.2.06, 22 June 2011

               Distributed Multipoles from Gaussian wavefunctions

Starting at 2:57:51 on 28 Apr 2020

Using SCF density matrix from file ./SSI/SSI-072ILE-077PHE-1-dimer.test.15375.fchk

                         Distributed Multipole Analysis

Standard DMA

Positions and radii in angstrom
Multipole moments in atomic units, ea_0^k for rank k

C          x =  2.404123  y = -1.047320  z =  0.588143 angstrom
           Maximum rank =  0   Radius =  0.650 angstrom
                   Q00  =  -0.235208

C          x =  2.701123  y = -2.508320  z =  0.933143 angstrom
           Maximum rank =  0   Radius =  0.650 angstrom
                   Q00  =  -0.233522

H          x =  1.868123  y = -0.978320  z = -0.359857 angstrom
           Maximum rank =  0   Radius =  0.325 angstrom
                   Q00  =   0.083487

H          x =  1.792123  y = -0.597320  z =  1.368143 angstrom
           Maximum rank =  0   Radius =  0.325 angstrom
                   Q00  =   0.083648

H          x =  3.317123  y = -0.456320  z =  0.538143 angstrom
           Maximum rank =  0   Radius =  0.325 angstrom
                   Q00  =   0.071610

H          x =  3.285123  y = -2.523320  z =  1.855143 angstrom
           Maximum rank =  0   Radius =  0.325 angstrom
                   Q00  =   0.073455

H          x =  3.298899  y = -2.982246  z =  0.140643 angstrom
           Maximum rank =  0   Radius =  0.325 angstrom
                   Q00  =   0.075497

H          x =  1.772396  y = -3.074722  z =  1.096403 angstrom
           Maximum rank =  0   Radius =  0.325 angstrom
                   Q00  =   0.076891

C          x = -1.852877  y = -0.900320  z = -1.912857 angstrom
           Maximum rank =  0   Radius =  0.650 angstrom
                   Q00  =  -0.203410

C          x = -1.357877  y = -0.243320  z =  0.487143 angstrom
           Maximum rank =  0   Radius =  0.650 angstrom
                   Q00  =  -0.055202

C          x = -1.230877  y = -0.013320  z = -0.877857 angstrom
           Maximum rank =  0   Radius =  0.650 angstrom
                   Q00  =  -0.100803

C          x = -0.770877  y =  0.620680  z =  1.424143 angstrom
           Maximum rank =  0   Radius =  0.650 angstrom
                   Q00  =  -0.078757

C          x = -0.054877  y =  1.718680  z =  0.991143 angstrom
           Maximum rank =  0   Radius =  0.650 angstrom
                   Q00  =  -0.092186

C          x = -0.497877  y =  1.089680  z = -1.280857 angstrom
           Maximum rank =  0   Radius =  0.650 angstrom
                   Q00  =  -0.008318

C          x =  0.066123  y =  1.965680  z = -0.363857 angstrom
           Maximum rank =  0   Radius =  0.650 angstrom
                   Q00  =  -0.054610

H          x = -1.920877  y = -1.096320  z =  0.838143 angstrom
           Maximum rank =  0   Radius =  0.325 angstrom
                   Q00  =   0.056464

H          x = -0.867877  y =  0.423680  z =  2.481143 angstrom
           Maximum rank =  0   Radius =  0.325 angstrom
                   Q00  =   0.064039

H          x = -2.180877  y = -0.284320  z = -2.751857 angstrom
           Maximum rank =  0   Radius =  0.325 angstrom
                   Q00  =   0.099623

H          x = -2.724877  y = -1.362320  z = -1.450857 angstrom
           Maximum rank =  0   Radius =  0.325 angstrom
                   Q00  =   0.097307

H          x =  0.401123  y =  2.386680  z =  1.706143 angstrom
           Maximum rank =  0   Radius =  0.325 angstrom
                   Q00  =   0.059456

H          x = -0.388877  y =  1.294680  z = -2.332857 angstrom
           Maximum rank =  0   Radius =  0.325 angstrom
                   Q00  =   0.051854

H          x =  0.615123  y =  2.830680  z = -0.709857 angstrom
           Maximum rank =  0   Radius =  0.325 angstrom
                   Q00  =   0.063223

H          x = -1.195303  y = -1.702431  z = -2.279207 angstrom
           Maximum rank =  0   Radius =  0.325 angstrom
                   Q00  =   0.105459

Total multipoles referred to origin at
           x =   0.000000,  y =    0.000000,  z =    0.000000 angstrom
                   Q00  =  -0.000000

Finished at 2:57:51 on 28 Apr 2020

  DMA results are available in the Python driver through the
	  variable('DMA DISTRIBUTED MULTIPOLES')
  and
	  variable('DMA TOTAL MULTIPOLES')
  commands.

    Psi4 stopped on: Tuesday, 28 April 2020 02:57AM
    Psi4 wall time for execution: 0:01:32.01

*** Psi4 exiting successfully. Buy a developer a beer!
