                               Psi4 1.3.2 release

  ==> Input File <==

--------------------------------------------------------------------------
import numpy as np
set {scf_type pk
basis cc-pvdz
d_convergence 10
gdma_switch   0
gdma_limit    0
gdma_origin   [ 0.0,  0.0,  0.0 ]
}
molecule test {
    units Angstrom
    0 1
    --
    0 1
    C                0.077510448567575    -2.140992473051523    -1.691078634704300
    C               -0.919489551432425    -2.918992473051522    -0.842078634704300
    H                0.015510448567575    -2.435992473051523    -2.735078634704300
    H               -0.155489551432425    -1.081992473051522    -1.630078634704300
    H                1.090510448567575    -2.293992473051522    -1.324078634704300
    H               -1.925489551432425    -2.580992473051522    -1.091078634704300
    H               -0.853899551432425    -3.999132473051523    -1.039568634704300
    H               -0.748039551432425    -2.717882473051523     0.225701365295700
    C                1.236510448567574     0.883007526948478     0.373921365295700
    C                1.553510448567575     0.162007526948478     1.681921365295700
    C               -0.223489551432425     1.273007526948478     0.267921365295700
    O               -0.902489551432425     1.463007526948478     1.275921365295700
    N               -0.719489551432425     1.412007526948478    -0.955078634704300
    H                1.860510448567575     1.767007526948478     0.317921365295700
    H                1.475510448567575     0.235007526948478    -0.466078634704300
    H                0.920510448567575    -0.713992473051522     1.801921365295700
    H                1.327510448567575     0.849007526948478     2.499921365295700
    H               -1.706489551432425     1.601007526948478    -1.036078634704300
    H               -0.122489551432425     1.320007526948478    -1.783078634704300
    H                2.607890448567575    -0.137902473051522     1.773261365295700

}
e, wfn = energy('scf', return_wfn=True)
gdma(wfn)
dmavals = variable('DMA DISTRIBUTED MULTIPOLES')
charges = np.array(dmavals)
print(charges)
np.save('SSI-007VAL-154GLN-2-dimer.npy', np.array(charges))--------------------------------------------------------------------------

*** tstart() called on ds3
*** at Tue Apr 28 17:10:05 2020

   => Loading Basis Set <=

    Name: CC-PVDZ
    Role: ORBITAL
    Keyword: BASIS
    atoms 1-2, 9-11  entry C          line   138 file /theoryfs2/ds/metcalf/miniconda2/envs/tf2gpu/share/psi4/basis/cc-pvdz.gbs
    atoms 3-8, 14-20 entry H          line    22 file /theoryfs2/ds/metcalf/miniconda2/envs/tf2gpu/share/psi4/basis/cc-pvdz.gbs
    atoms 12         entry O          line   198 file /theoryfs2/ds/metcalf/miniconda2/envs/tf2gpu/share/psi4/basis/cc-pvdz.gbs
    atoms 13         entry N          line   168 file /theoryfs2/ds/metcalf/miniconda2/envs/tf2gpu/share/psi4/basis/cc-pvdz.gbs

         ---------------------------------------------------------
                                   SCF
               by Justin Turney, Rob Parrish, Andy Simmonett
                          and Daniel G. A. Smith
                              RHF Reference
                        1 Threads,    500 MiB Core
         ---------------------------------------------------------

  ==> Geometry <==

    Molecular point group: c1
    Full point group: C1

    Geometry (in Angstrom), charge = 0, multiplicity = 1:

       Center              X                  Y                   Z               Mass
    ------------   -----------------  -----------------  -----------------  -----------------
         C            0.077510448568    -2.140992473052    -1.691078634704    12.000000000000
         C           -0.919489551432    -2.918992473052    -0.842078634704    12.000000000000
         H            0.015510448568    -2.435992473052    -2.735078634704     1.007825032230
         H           -0.155489551432    -1.081992473052    -1.630078634704     1.007825032230
         H            1.090510448568    -2.293992473052    -1.324078634704     1.007825032230
         H           -1.925489551432    -2.580992473052    -1.091078634704     1.007825032230
         H           -0.853899551432    -3.999132473052    -1.039568634704     1.007825032230
         H           -0.748039551432    -2.717882473052     0.225701365296     1.007825032230
         C            1.236510448568     0.883007526948     0.373921365296    12.000000000000
         C            1.553510448568     0.162007526948     1.681921365296    12.000000000000
         C           -0.223489551432     1.273007526948     0.267921365296    12.000000000000
         O           -0.902489551432     1.463007526948     1.275921365296    15.994914619570
         N           -0.719489551432     1.412007526948    -0.955078634704    14.003074004430
         H            1.860510448568     1.767007526948     0.317921365296     1.007825032230
         H            1.475510448568     0.235007526948    -0.466078634704     1.007825032230
         H            0.920510448568    -0.713992473052     1.801921365296     1.007825032230
         H            1.327510448568     0.849007526948     2.499921365296     1.007825032230
         H           -1.706489551432     1.601007526948    -1.036078634704     1.007825032230
         H           -0.122489551432     1.320007526948    -1.783078634704     1.007825032230
         H            2.607890448568    -0.137902473052     1.773261365296     1.007825032230

  Running in c1 symmetry.

  Rotational constants: A =      0.08923  B =      0.03981  C =      0.03420 [cm^-1]
  Rotational constants: A =   2674.99973  B =   1193.50608  C =   1025.29608 [MHz]
  Nuclear repulsion =  310.123307719185391

  Charge       = 0
  Multiplicity = 1
  Electrons    = 58
  Nalpha       = 29
  Nbeta        = 29

  ==> Algorithm <==

  SCF Algorithm Type is PK.
  DIIS enabled.
  MOM disabled.
  Fractional occupation disabled.
  Guess Type is SAD.
  Energy threshold   = 1.00e-06
  Density threshold  = 1.00e-10
  Integral threshold = 0.00e+00

  ==> Primary Basis <==

  Basis Set: CC-PVDZ
    Blend: CC-PVDZ
    Number of shells: 81
    Number of basis function: 163
    Number of Cartesian functions: 170
    Spherical Harmonics?: true
    Max angular momentum: 2

  ==> Pre-Iterations <==

   -------------------------------------------------------
    Irrep   Nso     Nmo     Nalpha   Nbeta   Ndocc  Nsocc
   -------------------------------------------------------
     A        163     163       0       0       0       0
   -------------------------------------------------------
    Total     163     163      29      29      29       0
   -------------------------------------------------------

  ==> Integral Setup <==

  Using integral reordering PK algorithm.
  Sizing the integral batches needed.
  Building batch lookup table.
   Calculation information:
      Number of atoms:                  20
      Number of AO shells:              81
      Number of primitives:            219
      Number of atomic orbitals:       170
      Number of basis functions:       163

      Integral cutoff                 1.00e-12
      Number of threads:                 1

	Batch   1 pq = [       0,    9405] index = [             0,44231715] size =     44231715
	Batch   2 pq = [    9405,   13366] index = [      44231715,89331661] size =     45099946
  Task number: 9
  Buffer size: 11059200
  Buffer per thread: 2
  We computed 5375578 shell quartets total.
  Whereas there are 5516181 unique shell quartets.

  ==> DiskJK: Disk-Based J/K Matrices <==

    J tasked:                  Yes
    K tasked:                  Yes
    wK tasked:                  No
    Memory [MiB]:              375
    Schwarz Cutoff:          1E-12

    OpenMP threads:              1

  Minimum eigenvalue in the overlap matrix is 3.2600040995E-03.
  Using Symmetric Orthogonalization.

  SCF Guess: Superposition of Atomic Densities via on-the-fly atomic UHF.

  ==> Iterations <==

                        Total Energy        Delta E     RMS |[F,P]|

   @RHF iter SAD:  -324.97404574569299   -3.24974e+02   0.00000e+00
   @RHF iter   1:  -326.00500284973288   -1.03096e+00   4.13124e-03 DIIS
   @RHF iter   2:  -326.20229657432839   -1.97294e-01   2.29603e-03 DIIS
   @RHF iter   3:  -326.25793573729760   -5.56392e-02   4.94382e-04 DIIS
   @RHF iter   4:  -326.26177912638138   -3.84339e-03   2.05645e-04 DIIS
   @RHF iter   5:  -326.26246974474310   -6.90618e-04   2.94337e-05 DIIS
   @RHF iter   6:  -326.26250283197930   -3.30872e-05   1.16047e-05 DIIS
   @RHF iter   7:  -326.26250708432559   -4.25235e-06   4.99110e-06 DIIS
   @RHF iter   8:  -326.26250797645804   -8.92132e-07   1.95023e-06 DIIS
   @RHF iter   9:  -326.26250812350492   -1.47047e-07   4.27819e-07 DIIS
   @RHF iter  10:  -326.26250812956812   -6.06320e-09   1.33515e-07 DIIS
   @RHF iter  11:  -326.26250813004310   -4.74984e-10   3.59010e-08 DIIS
   @RHF iter  12:  -326.26250813008522   -4.21210e-11   9.08595e-09 DIIS
   @RHF iter  13:  -326.26250813008608   -8.52651e-13   2.31310e-09 DIIS
   @RHF iter  14:  -326.26250813009005   -3.97904e-12   1.03052e-09 DIIS
   @RHF iter  15:  -326.26250813008602    4.03588e-12   5.14398e-10 DIIS
   @RHF iter  16:  -326.26250813008835   -2.33058e-12   1.89498e-10 DIIS
   @RHF iter  17:  -326.26250813008619    2.16005e-12   5.73359e-11 DIIS
  Energy and wave function converged.

  ==> Post-Iterations <==

    Orbital Energies [Eh]
    ---------------------

    Doubly Occupied:

       1A    -20.506259     2A    -15.591936     3A    -11.345519
       4A    -11.238770     5A    -11.222031     6A    -11.221168
       7A    -11.221038     8A     -1.368990     9A     -1.216472
      10A     -1.047780    11A     -1.024710    12A     -0.888649
      13A     -0.842652    14A     -0.783537    15A     -0.723322
      16A     -0.665482    17A     -0.637410    18A     -0.604244
      19A     -0.601953    20A     -0.586303    21A     -0.552280
      22A     -0.524291    23A     -0.508437    24A     -0.501521
      25A     -0.494595    26A     -0.488766    27A     -0.486110
      28A     -0.410362    29A     -0.404102

    Virtual:

      30A      0.158542    31A      0.176775    32A      0.196709
      33A      0.204393    34A      0.224782    35A      0.236761
      36A      0.249988    37A      0.257341    38A      0.264621
      39A      0.266613    40A      0.279503    41A      0.312321
      42A      0.318245    43A      0.352236    44A      0.390649
      45A      0.399202    46A      0.413126    47A      0.468470
      48A      0.543039    49A      0.591827    50A      0.600441
      51A      0.609370    52A      0.616978    53A      0.639383
      54A      0.659145    55A      0.673449    56A      0.689474
      57A      0.717705    58A      0.746692    59A      0.798278
      60A      0.810713    61A      0.828455    62A      0.855802
      63A      0.866768    64A      0.867426    65A      0.876817
      66A      0.891717    67A      0.895722    68A      0.899792
      69A      0.910236    70A      0.916767    71A      0.927298
      72A      0.932259    73A      0.945364    74A      0.955420
      75A      0.973558    76A      0.982259    77A      1.047423
      78A      1.057693    79A      1.101044    80A      1.109258
      81A      1.120485    82A      1.137501    83A      1.164518
      84A      1.266053    85A      1.292291    86A      1.331261
      87A      1.374069    88A      1.403107    89A      1.419115
      90A      1.434173    91A      1.459287    92A      1.474647
      93A      1.478733    94A      1.494541    95A      1.579154
      96A      1.597635    97A      1.665920    98A      1.683536
      99A      1.691694   100A      1.698320   101A      1.719073
     102A      1.766592   103A      1.797416   104A      1.845145
     105A      1.867637   106A      1.879363   107A      1.882478
     108A      1.888732   109A      1.907346   110A      1.916426
     111A      1.927674   112A      1.939414   113A      1.946420
     114A      1.948716   115A      1.958290   116A      1.962066
     117A      1.979886   118A      1.991893   119A      2.002757
     120A      2.008931   121A      2.055217   122A      2.062742
     123A      2.110261   124A      2.115959   125A      2.137457
     126A      2.196390   127A      2.227781   128A      2.270152
     129A      2.300738   130A      2.314054   131A      2.334930
     132A      2.362354   133A      2.413796   134A      2.443208
     135A      2.464447   136A      2.480806   137A      2.533020
     138A      2.547034   139A      2.557092   140A      2.575995
     141A      2.580066   142A      2.603012   143A      2.638911
     144A      2.752370   145A      2.765060   146A      2.780267
     147A      2.799561   148A      2.846630   149A      2.850796
     150A      2.862516   151A      2.886189   152A      2.918195
     153A      2.947559   154A      2.974525   155A      2.982882
     156A      3.005083   157A      3.097595   158A      3.149379
     159A      3.286181   160A      3.495472   161A      3.533648
     162A      3.861599   163A      3.899221

    Final Occupation by Irrep:
              A
    DOCC [    29 ]

  @RHF Final Energy:  -326.26250813008619

   => Energetics <=

    Nuclear Repulsion Energy =            310.1233077191853909
    One-Electron Energy =               -1057.3542571629195663
    Two-Electron Energy =                 420.9684413136479861
    Total Energy =                       -326.2625081300861893

Computation Completed

Properties will be evaluated at   0.000000,   0.000000,   0.000000 [a0]

Properties computed using the SCF density matrix

  Nuclear Dipole Moment: [e a0]
     X:     3.5471      Y:    -9.5497      Z:    -4.1970

  Electronic Dipole Moment: [e a0]
     X:    -2.9475      Y:     9.4104      Z:     2.7479

  Dipole Moment: [e a0]
     X:     0.5996      Y:    -0.1394      Z:    -1.4491     Total:     1.5744

  Dipole Moment: [D]
     X:     1.5239      Y:    -0.3543      Z:    -3.6831     Total:     4.0017

*** tstop() called on ds3 at Tue Apr 28 17:11:27 2020
Module time:
	user time   =      33.44 seconds =       0.56 minutes
	system time =      11.90 seconds =       0.20 minutes
	total time  =         82 seconds =       1.37 minutes
Total time:
	user time   =      33.44 seconds =       0.56 minutes
	system time =      11.90 seconds =       0.20 minutes
	total time  =         82 seconds =       1.37 minutes
                                     G D M A

                                 by Anthony Stone

                           version 2.2.06, 22 June 2011

               Distributed Multipoles from Gaussian wavefunctions

Starting at 17:11:27 on 28 Apr 2020

Using SCF density matrix from file ./SSI/SSI-007VAL-154GLN-2-dimer.test.26869.fchk

                         Distributed Multipole Analysis

Standard DMA

Positions and radii in angstrom
Multipole moments in atomic units, ea_0^k for rank k

C          x =  0.077510  y = -2.140992  z = -1.691079 angstrom
           Maximum rank =  0   Radius =  0.650 angstrom
                   Q00  =  -0.232760

C          x = -0.919490  y = -2.918992  z = -0.842079 angstrom
           Maximum rank =  0   Radius =  0.650 angstrom
                   Q00  =  -0.231935

H          x =  0.015510  y = -2.435992  z = -2.735079 angstrom
           Maximum rank =  0   Radius =  0.325 angstrom
                   Q00  =   0.079831

H          x = -0.155490  y = -1.081992  z = -1.630079 angstrom
           Maximum rank =  0   Radius =  0.325 angstrom
                   Q00  =   0.054427

H          x =  1.090510  y = -2.293992  z = -1.324079 angstrom
           Maximum rank =  0   Radius =  0.325 angstrom
                   Q00  =   0.077005

H          x = -1.925490  y = -2.580992  z = -1.091079 angstrom
           Maximum rank =  0   Radius =  0.325 angstrom
                   Q00  =   0.078236

H          x = -0.853900  y = -3.999132  z = -1.039569 angstrom
           Maximum rank =  0   Radius =  0.325 angstrom
                   Q00  =   0.079947

H          x = -0.748040  y = -2.717882  z =  0.225701 angstrom
           Maximum rank =  0   Radius =  0.325 angstrom
                   Q00  =   0.084530

C          x =  1.236510  y =  0.883008  z =  0.373921 angstrom
           Maximum rank =  0   Radius =  0.650 angstrom
                   Q00  =  -0.171396

C          x =  1.553510  y =  0.162008  z =  1.681921 angstrom
           Maximum rank =  0   Radius =  0.650 angstrom
                   Q00  =  -0.213332

C          x = -0.223490  y =  1.273008  z =  0.267921 angstrom
           Maximum rank =  0   Radius =  0.650 angstrom
                   Q00  =   0.871796

O          x = -0.902490  y =  1.463008  z =  1.275921 angstrom
           Maximum rank =  0   Radius =  0.650 angstrom
                   Q00  =  -0.813742

N          x = -0.719490  y =  1.412008  z = -0.955079 angstrom
           Maximum rank =  0   Radius =  0.650 angstrom
                   Q00  =  -0.555608

H          x =  1.860510  y =  1.767008  z =  0.317921 angstrom
           Maximum rank =  0   Radius =  0.325 angstrom
                   Q00  =   0.111096

H          x =  1.475510  y =  0.235008  z = -0.466079 angstrom
           Maximum rank =  0   Radius =  0.325 angstrom
                   Q00  =   0.061012

H          x =  0.920510  y = -0.713992  z =  1.801921 angstrom
           Maximum rank =  0   Radius =  0.325 angstrom
                   Q00  =   0.092993

H          x =  1.327510  y =  0.849008  z =  2.499921 angstrom
           Maximum rank =  0   Radius =  0.325 angstrom
                   Q00  =   0.110279

H          x = -1.706490  y =  1.601008  z = -1.036079 angstrom
           Maximum rank =  0   Radius =  0.325 angstrom
                   Q00  =   0.219452

H          x = -0.122490  y =  1.320008  z = -1.783079 angstrom
           Maximum rank =  0   Radius =  0.325 angstrom
                   Q00  =   0.217568

H          x =  2.607890  y = -0.137902  z =  1.773261 angstrom
           Maximum rank =  0   Radius =  0.325 angstrom
                   Q00  =   0.080602

Total multipoles referred to origin at
           x =   0.000000,  y =    0.000000,  z =    0.000000 angstrom
                   Q00  =  -0.000000

Finished at 17:11:27 on 28 Apr 2020

  DMA results are available in the Python driver through the
	  variable('DMA DISTRIBUTED MULTIPOLES')
  and
	  variable('DMA TOTAL MULTIPOLES')
  commands.

    Psi4 stopped on: Tuesday, 28 April 2020 05:11PM
    Psi4 wall time for execution: 0:01:21.99

*** Psi4 exiting successfully. Buy a developer a beer!
