                               Psi4 1.3.2 release

  ==> Input File <==

--------------------------------------------------------------------------
import numpy as np
set {scf_type pk
basis cc-pvdz
d_convergence 10
gdma_switch   0
gdma_limit    0
gdma_origin   [ 0.0,  0.0,  0.0 ]
}
molecule test {
    units Angstrom
    -1 1
    --
    -1 1
    C               -0.012455392198313    -0.723660724772017    -0.593432561855876
    C               -0.501455392198313    -1.953660724772017    -1.402432561855876
    C                0.924544607801687    -1.090660724772017     0.589567438144124
    O                1.225544607801687    -2.292660724772017     0.776567438144124
    O                1.433544607801687    -0.189660724772017     1.276567438144124
    H                0.446544607801687    -0.002660724772017    -1.251432561855876
    H               -0.892455392198313    -0.244660724772017    -0.165432561855876
    H               -0.907455392198314    -1.547660724772017    -2.329432561855876
    H               -1.304956392198313    -2.477320724772017    -0.863762561855876
    H                0.351116607801687    -2.588620724772017    -1.685192561855876
    C               -1.455455392198313     2.771339275227983    -1.023432561855876
    C               -1.544455392198313     3.337339275227983     0.390567438144124
    H               -1.287455392198313     1.701339275227983    -1.003432561855876
    H               -2.396455392198313     2.960339275227983    -1.544432561855876
    H               -0.669455392198313     3.258339275227983    -1.601432561855876
    H               -1.625455392198313     4.421339275227982     0.312567438144124
    H               -0.630443392198313     3.085249275227983     0.948267438144124
    H               -2.455127392198313     2.960289275227983     0.878937438144124

}
e, wfn = energy('scf', return_wfn=True)
gdma(wfn)
dmavals = variable('DMA DISTRIBUTED MULTIPOLES')
charges = np.array(dmavals)
print(charges)
np.save('SSI-006ASP-116VAL-1-dimer.npy', np.array(charges))--------------------------------------------------------------------------

*** tstart() called on ds3
*** at Mon Apr 27 17:06:05 2020

   => Loading Basis Set <=

    Name: CC-PVDZ
    Role: ORBITAL
    Keyword: BASIS
    atoms 1-3, 11-12  entry C          line   138 file /theoryfs2/ds/metcalf/miniconda2/envs/tf2gpu/share/psi4/basis/cc-pvdz.gbs
    atoms 4-5         entry O          line   198 file /theoryfs2/ds/metcalf/miniconda2/envs/tf2gpu/share/psi4/basis/cc-pvdz.gbs
    atoms 6-10, 13-18 entry H          line    22 file /theoryfs2/ds/metcalf/miniconda2/envs/tf2gpu/share/psi4/basis/cc-pvdz.gbs

         ---------------------------------------------------------
                                   SCF
               by Justin Turney, Rob Parrish, Andy Simmonett
                          and Daniel G. A. Smith
                              RHF Reference
                        1 Threads,    500 MiB Core
         ---------------------------------------------------------

  ==> Geometry <==

    Molecular point group: c1
    Full point group: C1

    Geometry (in Angstrom), charge = -1, multiplicity = 1:

       Center              X                  Y                   Z               Mass
    ------------   -----------------  -----------------  -----------------  -----------------
         C           -0.012455392198    -0.723660724772    -0.593432561856    12.000000000000
         C           -0.501455392198    -1.953660724772    -1.402432561856    12.000000000000
         C            0.924544607802    -1.090660724772     0.589567438144    12.000000000000
         O            1.225544607802    -2.292660724772     0.776567438144    15.994914619570
         O            1.433544607802    -0.189660724772     1.276567438144    15.994914619570
         H            0.446544607802    -0.002660724772    -1.251432561856     1.007825032230
         H           -0.892455392198    -0.244660724772    -0.165432561856     1.007825032230
         H           -0.907455392198    -1.547660724772    -2.329432561856     1.007825032230
         H           -1.304956392198    -2.477320724772    -0.863762561856     1.007825032230
         H            0.351116607802    -2.588620724772    -1.685192561856     1.007825032230
         C           -1.455455392198     2.771339275228    -1.023432561856    12.000000000000
         C           -1.544455392198     3.337339275228     0.390567438144    12.000000000000
         H           -1.287455392198     1.701339275228    -1.003432561856     1.007825032230
         H           -2.396455392198     2.960339275228    -1.544432561856     1.007825032230
         H           -0.669455392198     3.258339275228    -1.601432561856     1.007825032230
         H           -1.625455392198     4.421339275228     0.312567438144     1.007825032230
         H           -0.630443392198     3.085249275228     0.948267438144     1.007825032230
         H           -2.455127392198     2.960289275228     0.878937438144     1.007825032230

  Running in c1 symmetry.

  Rotational constants: A =      0.10881  B =      0.03029  C =      0.02460 [cm^-1]
  Rotational constants: A =   3261.99808  B =    908.05386  C =    737.56871 [MHz]
  Nuclear repulsion =  286.011403456761911

  Charge       = -1
  Multiplicity = 1
  Electrons    = 58
  Nalpha       = 29
  Nbeta        = 29

  ==> Algorithm <==

  SCF Algorithm Type is PK.
  DIIS enabled.
  MOM disabled.
  Fractional occupation disabled.
  Guess Type is SAD.
  Energy threshold   = 1.00e-06
  Density threshold  = 1.00e-10
  Integral threshold = 0.00e+00

  ==> Primary Basis <==

  Basis Set: CC-PVDZ
    Blend: CC-PVDZ
    Number of shells: 75
    Number of basis function: 153
    Number of Cartesian functions: 160
    Spherical Harmonics?: true
    Max angular momentum: 2

  ==> Pre-Iterations <==

   -------------------------------------------------------
    Irrep   Nso     Nmo     Nalpha   Nbeta   Ndocc  Nsocc
   -------------------------------------------------------
     A        153     153       0       0       0       0
   -------------------------------------------------------
    Total     153     153      29      29      29       0
   -------------------------------------------------------

  ==> Integral Setup <==

  Using integral reordering PK algorithm.
  Sizing the integral batches needed.
  Building batch lookup table.
   Calculation information:
      Number of atoms:                  18
      Number of AO shells:              75
      Number of primitives:            209
      Number of atomic orbitals:       160
      Number of basis functions:       153

      Integral cutoff                 1.00e-12
      Number of threads:                 1

	Batch   1 pq = [       0,    9405] index = [             0,44231715] size =     44231715
	Batch   2 pq = [    9405,   11781] index = [      44231715,69401871] size =     25170156
  Task number: 7
  Buffer size: 11059200
  Buffer per thread: 2
  We computed 3300777 shell quartets total.
  Whereas there are 4062675 unique shell quartets.

  ==> DiskJK: Disk-Based J/K Matrices <==

    J tasked:                  Yes
    K tasked:                  Yes
    wK tasked:                  No
    Memory [MiB]:              375
    Schwarz Cutoff:          1E-12

    OpenMP threads:              1

  Minimum eigenvalue in the overlap matrix is 3.6435749671E-03.
  Using Symmetric Orthogonalization.

  SCF Guess: Superposition of Atomic Densities via on-the-fly atomic UHF.

  ==> Iterations <==

                        Total Energy        Delta E     RMS |[F,P]|

   @RHF iter SAD:  -343.81172399769758   -3.43812e+02   0.00000e+00
   @RHF iter   1:  -345.21315357402153   -1.40143e+00   4.93708e-03 DIIS
   @RHF iter   2:  -345.43476360249218   -2.21610e-01   2.74920e-03 DIIS
   @RHF iter   3:  -345.50112184596946   -6.63582e-02   4.27198e-04 DIIS
   @RHF iter   4:  -345.50411226810155   -2.99042e-03   1.67207e-04 DIIS
   @RHF iter   5:  -345.50455536141089   -4.43093e-04   2.49011e-05 DIIS
   @RHF iter   6:  -345.50456844731656   -1.30859e-05   8.27117e-06 DIIS
   @RHF iter   7:  -345.50456936507771   -9.17761e-07   2.93357e-06 DIIS
   @RHF iter   8:  -345.50456948554074   -1.20463e-07   7.41382e-07 DIIS
   @RHF iter   9:  -345.50456949790782   -1.23671e-08   2.49112e-07 DIIS
   @RHF iter  10:  -345.50456950014507   -2.23724e-09   8.05328e-08 DIIS
   @RHF iter  11:  -345.50456950048357   -3.38503e-10   2.42430e-08 DIIS
   @RHF iter  12:  -345.50456950051824   -3.46745e-11   7.59426e-09 DIIS
   @RHF iter  13:  -345.50456950051966   -1.42109e-12   2.33557e-09 DIIS
   @RHF iter  14:  -345.50456950052063   -9.66338e-13   7.13999e-10 DIIS
   @RHF iter  15:  -345.50456950052069   -5.68434e-14   2.39078e-10 DIIS
   @RHF iter  16:  -345.50456950052040    2.84217e-13   8.13159e-11 DIIS
  Energy and wave function converged.

  ==> Post-Iterations <==

    Orbital Energies [Eh]
    ---------------------

    Doubly Occupied:

       1A    -20.253390     2A    -20.251964     3A    -11.122420
       4A    -11.116059     5A    -11.111033     6A    -11.073747
       7A    -11.056601     8A     -1.146834     9A     -1.028506
      10A     -0.921263    11A     -0.865205    12A     -0.738889
      13A     -0.699901    14A     -0.507931    15A     -0.501337
      16A     -0.494778    17A     -0.459584    18A     -0.426452
      19A     -0.402631    20A     -0.389477    21A     -0.386916
      22A     -0.379398    23A     -0.361062    24A     -0.354388
      25A     -0.323377    26A     -0.300194    27A     -0.177743
      28A     -0.162924    29A     -0.153989

    Virtual:

      30A      0.278629    31A      0.322434    32A      0.335363
      33A      0.342747    34A      0.360928    35A      0.375026
      36A      0.385933    37A      0.391449    38A      0.408898
      39A      0.416570    40A      0.467520    41A      0.489167
      42A      0.500608    43A      0.541590    44A      0.626370
      45A      0.693747    46A      0.700845    47A      0.705837
      48A      0.710644    49A      0.715029    50A      0.768325
      51A      0.775786    52A      0.785551    53A      0.838509
      54A      0.909678    55A      0.927991    56A      0.949883
      57A      0.975531    58A      0.979682    59A      0.986899
      60A      0.997006    61A      1.006368    62A      1.017774
      63A      1.029151    64A      1.034811    65A      1.039720
      66A      1.052369    67A      1.060972    68A      1.069863
      69A      1.081687    70A      1.119692    71A      1.130745
      72A      1.153319    73A      1.225014    74A      1.233858
      75A      1.249040    76A      1.298322    77A      1.309695
      78A      1.403983    79A      1.406944    80A      1.470742
      81A      1.491155    82A      1.531190    83A      1.574291
      84A      1.585279    85A      1.597344    86A      1.617098
      87A      1.654651    88A      1.660734    89A      1.687074
      90A      1.746356    91A      1.771952    92A      1.791252
      93A      1.823497    94A      1.845915    95A      1.866213
      96A      1.924819    97A      1.955083    98A      1.971680
      99A      1.991443   100A      2.011782   101A      2.020876
     102A      2.035449   103A      2.041531   104A      2.048891
     105A      2.057990   106A      2.060882   107A      2.076371
     108A      2.112546   109A      2.145300   110A      2.154457
     111A      2.179879   112A      2.209557   113A      2.215875
     114A      2.227927   115A      2.243107   116A      2.275471
     117A      2.333698   118A      2.384290   119A      2.396031
     120A      2.421202   121A      2.455157   122A      2.467126
     123A      2.534931   124A      2.547855   125A      2.566807
     126A      2.618061   127A      2.633478   128A      2.664722
     129A      2.678241   130A      2.726270   131A      2.769194
     132A      2.834016   133A      2.866269   134A      2.895789
     135A      2.918191   136A      2.944858   137A      2.956023
     138A      2.974100   139A      2.982477   140A      3.048200
     141A      3.061256   142A      3.088330   143A      3.130550
     144A      3.249298   145A      3.299689   146A      3.302314
     147A      3.367573   148A      3.655859   149A      3.758237
     150A      3.825859   151A      4.062189   152A      4.082680
     153A      4.218948

    Final Occupation by Irrep:
              A
    DOCC [    29 ]

  @RHF Final Energy:  -345.50456950052040

   => Energetics <=

    Nuclear Repulsion Energy =            286.0114034567619115
    One-Electron Energy =               -1048.6959633009428217
    Two-Electron Energy =                 417.1799903436605632
    Total Energy =                       -345.5045695005204038

Computation Completed

Properties will be evaluated at   0.000000,   0.000000,   0.000000 [a0]

Properties computed using the SCF density matrix

  Nuclear Dipole Moment: [e a0]
     X:   -10.6477      Y:    10.7933      Z:    -7.7756

  Electronic Dipole Moment: [e a0]
     X:     8.2665      Y:    -8.5191      Z:     5.9100

  Dipole Moment: [e a0]
     X:    -2.3813      Y:     2.2742      Z:    -1.8656     Total:     3.7846

  Dipole Moment: [D]
     X:    -6.0526      Y:     5.7804      Z:    -4.7419     Total:     9.6194

*** tstop() called on ds3 at Mon Apr 27 17:06:41 2020
Module time:
	user time   =      21.53 seconds =       0.36 minutes
	system time =       9.56 seconds =       0.16 minutes
	total time  =         36 seconds =       0.60 minutes
Total time:
	user time   =      21.53 seconds =       0.36 minutes
	system time =       9.56 seconds =       0.16 minutes
	total time  =         36 seconds =       0.60 minutes
                                     G D M A

                                 by Anthony Stone

                           version 2.2.06, 22 June 2011

               Distributed Multipoles from Gaussian wavefunctions

Starting at 17:6:41 on 27 Apr 2020

Using SCF density matrix from file ./SSI/SSI-006ASP-116VAL-1-dimer.test.9780.fchk

                         Distributed Multipole Analysis

Standard DMA

Positions and radii in angstrom
Multipole moments in atomic units, ea_0^k for rank k

C          x = -0.012455  y = -0.723661  z = -0.593433 angstrom
           Maximum rank =  0   Radius =  0.650 angstrom
                   Q00  =  -0.163256

C          x = -0.501455  y = -1.953661  z = -1.402433 angstrom
           Maximum rank =  0   Radius =  0.650 angstrom
                   Q00  =  -0.204634

C          x =  0.924545  y = -1.090661  z =  0.589567 angstrom
           Maximum rank =  0   Radius =  0.650 angstrom
                   Q00  =   1.025650

O          x =  1.225545  y = -2.292661  z =  0.776567 angstrom
           Maximum rank =  0   Radius =  0.650 angstrom
                   Q00  =  -0.967036

O          x =  1.433545  y = -0.189661  z =  1.276567 angstrom
           Maximum rank =  0   Radius =  0.650 angstrom
                   Q00  =  -0.933835

H          x =  0.446545  y = -0.002661  z = -1.251433 angstrom
           Maximum rank =  0   Radius =  0.325 angstrom
                   Q00  =   0.048448

H          x = -0.892455  y = -0.244661  z = -0.165433 angstrom
           Maximum rank =  0   Radius =  0.325 angstrom
                   Q00  =   0.040133

H          x = -0.907455  y = -1.547661  z = -2.329433 angstrom
           Maximum rank =  0   Radius =  0.325 angstrom
                   Q00  =   0.013001

H          x = -1.304956  y = -2.477321  z = -0.863763 angstrom
           Maximum rank =  0   Radius =  0.325 angstrom
                   Q00  =   0.060247

H          x =  0.351117  y = -2.588621  z = -1.685193 angstrom
           Maximum rank =  0   Radius =  0.325 angstrom
                   Q00  =   0.080754

C          x = -1.455455  y =  2.771339  z = -1.023433 angstrom
           Maximum rank =  0   Radius =  0.650 angstrom
                   Q00  =  -0.231357

C          x = -1.544455  y =  3.337339  z =  0.390567 angstrom
           Maximum rank =  0   Radius =  0.650 angstrom
                   Q00  =  -0.229261

H          x = -1.287455  y =  1.701339  z = -1.003433 angstrom
           Maximum rank =  0   Radius =  0.325 angstrom
                   Q00  =   0.124016

H          x = -2.396455  y =  2.960339  z = -1.544433 angstrom
           Maximum rank =  0   Radius =  0.325 angstrom
                   Q00  =   0.044637

H          x = -0.669455  y =  3.258339  z = -1.601433 angstrom
           Maximum rank =  0   Radius =  0.325 angstrom
                   Q00  =   0.068781

H          x = -1.625455  y =  4.421339  z =  0.312567 angstrom
           Maximum rank =  0   Radius =  0.325 angstrom
                   Q00  =   0.049125

H          x = -0.630443  y =  3.085249  z =  0.948267 angstrom
           Maximum rank =  0   Radius =  0.325 angstrom
                   Q00  =   0.104899

H          x = -2.455127  y =  2.960289  z =  0.878937 angstrom
           Maximum rank =  0   Radius =  0.325 angstrom
                   Q00  =   0.069688

Total multipoles referred to origin at
           x =   0.000000,  y =    0.000000,  z =    0.000000 angstrom
                   Q00  =  -1.000000

Finished at 17:6:41 on 27 Apr 2020

  DMA results are available in the Python driver through the
	  variable('DMA DISTRIBUTED MULTIPOLES')
  and
	  variable('DMA TOTAL MULTIPOLES')
  commands.

    Psi4 stopped on: Monday, 27 April 2020 05:06PM
    Psi4 wall time for execution: 0:00:36.30

*** Psi4 exiting successfully. Buy a developer a beer!
