                               Psi4 1.3.2 release

  ==> Input File <==

--------------------------------------------------------------------------
import numpy as np
set {scf_type pk
basis cc-pvdz
d_convergence 10
gdma_switch   0
gdma_limit    0
gdma_origin   [ 0.0,  0.0,  0.0 ]
}
molecule test {
    units Angstrom
    0 1
    --
    0 1
    C                2.863447449040817     2.562056120355852     0.213399093898938
    C                0.463447449040816     2.493056120355852    -0.552600906101062
    C                1.385447449040816     2.677056120355852     0.479399093898938
    C               -0.909552550959184     2.585056120355852    -0.304600906101062
    C               -1.368552550959184     2.865056120355852     0.982399093898938
    C                0.913447449040816     2.952056120355852     1.767399093898938
    C               -0.455552550959184     3.049056120355852     2.019399093898937
    H                0.808447449040816     2.274056120355852    -1.551600906101062
    H               -1.616552550959184     2.437056120355852    -1.109600906101062
    H                3.075447449040817     2.751056120355852    -0.835600906101062
    H                3.147447449040817     1.527056120355852     0.412399093898938
    H               -2.430552550959183     2.939056120355852     1.176399093898937
    H                1.579447449040816     3.055056120355852     2.608399093898938
    H               -0.821552550959184     3.244056120355852     3.015399093898937
    H                3.480867449040816     3.213306120355852     0.849529093898938
    C                0.448447449040816    -0.890943879644148     1.867399093898938
    C                0.322447449040816    -1.115943879644148    -0.645600906101062
    C                0.013447449040816    -1.621943879644149     0.621399093898938
    C               -0.066552550959184    -1.798943879644148    -1.801600906101062
    C               -0.693552550959184    -2.820943879644148     0.711399093898938
    C               -0.771552550959184    -2.998943879644148    -1.694600906101062
    C               -1.087552550959184    -3.511943879644148    -0.437600906101062
    O               -1.150552550959184    -3.674943879644148    -2.817600906101063
    H                0.875447449040816    -0.191943879644148    -0.732600906101062
    H                0.170447449040816    -1.409943879644148    -2.776600906101062
    H               -0.351552550959184    -0.959943879644148     2.603399093898938
    H                0.561447449040816     0.161056120355852     1.611399093898938
    H               -0.939552550959184    -3.208943879644149     1.685399093898938
    H               -1.630552550959184    -4.442943879644147    -0.348600906101062
    H               -1.627552550959184    -4.485943879644148    -2.603600906101062
    H                1.390307449040816    -1.251323879644148     2.306739093898938

}
e, wfn = energy('scf', return_wfn=True)
gdma(wfn)
dmavals = variable('DMA DISTRIBUTED MULTIPOLES')
charges = np.array(dmavals)
print(charges)
np.save('SSI-126PHE-176TYR-1-dimer.npy', np.array(charges))--------------------------------------------------------------------------

*** tstart() called on ds3
*** at Mon Apr 27 23:29:18 2020

   => Loading Basis Set <=

    Name: CC-PVDZ
    Role: ORBITAL
    Keyword: BASIS
    atoms 1-7, 16-22  entry C          line   138 file /theoryfs2/ds/metcalf/miniconda2/envs/tf2gpu/share/psi4/basis/cc-pvdz.gbs
    atoms 8-15, 24-31 entry H          line    22 file /theoryfs2/ds/metcalf/miniconda2/envs/tf2gpu/share/psi4/basis/cc-pvdz.gbs
    atoms 23          entry O          line   198 file /theoryfs2/ds/metcalf/miniconda2/envs/tf2gpu/share/psi4/basis/cc-pvdz.gbs

         ---------------------------------------------------------
                                   SCF
               by Justin Turney, Rob Parrish, Andy Simmonett
                          and Daniel G. A. Smith
                              RHF Reference
                        1 Threads,    500 MiB Core
         ---------------------------------------------------------

  ==> Geometry <==

    Molecular point group: c1
    Full point group: C1

    Geometry (in Angstrom), charge = 0, multiplicity = 1:

       Center              X                  Y                   Z               Mass
    ------------   -----------------  -----------------  -----------------  -----------------
         C            2.863447449041     2.562056120356     0.213399093899    12.000000000000
         C            0.463447449041     2.493056120356    -0.552600906101    12.000000000000
         C            1.385447449041     2.677056120356     0.479399093899    12.000000000000
         C           -0.909552550959     2.585056120356    -0.304600906101    12.000000000000
         C           -1.368552550959     2.865056120356     0.982399093899    12.000000000000
         C            0.913447449041     2.952056120356     1.767399093899    12.000000000000
         C           -0.455552550959     3.049056120356     2.019399093899    12.000000000000
         H            0.808447449041     2.274056120356    -1.551600906101     1.007825032230
         H           -1.616552550959     2.437056120356    -1.109600906101     1.007825032230
         H            3.075447449041     2.751056120356    -0.835600906101     1.007825032230
         H            3.147447449041     1.527056120356     0.412399093899     1.007825032230
         H           -2.430552550959     2.939056120356     1.176399093899     1.007825032230
         H            1.579447449041     3.055056120356     2.608399093899     1.007825032230
         H           -0.821552550959     3.244056120356     3.015399093899     1.007825032230
         H            3.480867449041     3.213306120356     0.849529093899     1.007825032230
         C            0.448447449041    -0.890943879644     1.867399093899    12.000000000000
         C            0.322447449041    -1.115943879644    -0.645600906101    12.000000000000
         C            0.013447449041    -1.621943879644     0.621399093899    12.000000000000
         C           -0.066552550959    -1.798943879644    -1.801600906101    12.000000000000
         C           -0.693552550959    -2.820943879644     0.711399093899    12.000000000000
         C           -0.771552550959    -2.998943879644    -1.694600906101    12.000000000000
         C           -1.087552550959    -3.511943879644    -0.437600906101    12.000000000000
         O           -1.150552550959    -3.674943879644    -2.817600906101    15.994914619570
         H            0.875447449041    -0.191943879644    -0.732600906101     1.007825032230
         H            0.170447449041    -1.409943879644    -2.776600906101     1.007825032230
         H           -0.351552550959    -0.959943879644     2.603399093899     1.007825032230
         H            0.561447449041     0.161056120356     1.611399093899     1.007825032230
         H           -0.939552550959    -3.208943879644     1.685399093899     1.007825032230
         H           -1.630552550959    -4.442943879644    -0.348600906101     1.007825032230
         H           -1.627552550959    -4.485943879644    -2.603600906101     1.007825032230
         H            1.390307449041    -1.251323879644     2.306739093899     1.007825032230

  Running in c1 symmetry.

  Rotational constants: A =      0.03541  B =      0.00915  C =      0.00888 [cm^-1]
  Rotational constants: A =   1061.45446  B =    274.36792  C =    266.17771 [MHz]
  Nuclear repulsion =  893.915851648145576

  Charge       = 0
  Multiplicity = 1
  Electrons    = 108
  Nalpha       = 54
  Nbeta        = 54

  ==> Algorithm <==

  SCF Algorithm Type is PK.
  DIIS enabled.
  MOM disabled.
  Fractional occupation disabled.
  Guess Type is SAD.
  Energy threshold   = 1.00e-06
  Density threshold  = 1.00e-10
  Integral threshold = 0.00e+00

  ==> Primary Basis <==

  Basis Set: CC-PVDZ
    Blend: CC-PVDZ
    Number of shells: 138
    Number of basis function: 290
    Number of Cartesian functions: 305
    Spherical Harmonics?: true
    Max angular momentum: 2

  ==> Pre-Iterations <==

   -------------------------------------------------------
    Irrep   Nso     Nmo     Nalpha   Nbeta   Ndocc  Nsocc
   -------------------------------------------------------
     A        290     290       0       0       0       0
   -------------------------------------------------------
    Total     290     290      54      54      54       0
   -------------------------------------------------------

  ==> Integral Setup <==

  Using integral reordering PK algorithm.
  Sizing the integral batches needed.
  Building batch lookup table.
   Calculation information:
      Number of atoms:                  31
      Number of AO shells:             138
      Number of primitives:            410
      Number of atomic orbitals:       305
      Number of basis functions:       290

      Integral cutoff                 1.00e-12
      Number of threads:                 1

	Batch   1 pq = [       0,    9405] index = [             0,44231715] size =     44231715
	Batch   2 pq = [    9405,   13301] index = [      44231715,88464951] size =     44233236
	Batch   3 pq = [   13301,   16290] index = [      88464951,132690195] size =     44225244
	Batch   4 pq = [   16290,   18810] index = [     132690195,176917455] size =     44227260
	Batch   5 pq = [   18810,   21030] index = [     176917455,221140965] size =     44223510
	Batch   6 pq = [   21030,   23037] index = [     221140965,265363203] size =     44222238
	Batch   7 pq = [   23037,   24883] index = [     265363203,309594286] size =     44231083
	Batch   8 pq = [   24883,   26601] index = [     309594286,353819901] size =     44225615
	Batch   9 pq = [   26601,   28214] index = [     353819901,398029005] size =     44209104
	Batch  10 pq = [   28214,   29740] index = [     398029005,442248670] size =     44219665
	Batch  11 pq = [   29740,   31191] index = [     442248670,486454836] size =     44206166
	Batch  12 pq = [   31191,   32578] index = [     486454836,530679331] size =     44224495
	Batch  13 pq = [   32578,   33908] index = [     530679331,574893186] size =     44213855
	Batch  14 pq = [   33908,   35188] index = [     574893186,619115266] size =     44222080
	Batch  15 pq = [   35188,   36423] index = [     619115266,663335676] size =     44220410
	Batch  16 pq = [   36423,   37617] index = [     663335676,707538153] size =     44202477
	Batch  17 pq = [   37617,   38775] index = [     707538153,751769700] size =     44231547
	Batch  18 pq = [   38775,   39899] index = [     751769700,795985050] size =     44215350
	Batch  19 pq = [   39899,   40992] index = [     795985050,840192528] size =     44207478
	Batch  20 pq = [   40992,   42057] index = [     840192528,884416653] size =     44224125
	Batch  21 pq = [   42057,   42195] index = [     884416653,890230110] size =      5813457
  Task number: 81
  Buffer size: 11059200
  Buffer per thread: 2
  We computed 46638026 shell quartets total.
  Whereas there are 45998436 unique shell quartets.
     1.39 percent of shell quartets recomputed by reordering.

  ==> DiskJK: Disk-Based J/K Matrices <==

    J tasked:                  Yes
    K tasked:                  Yes
    wK tasked:                  No
    Memory [MiB]:              375
    Schwarz Cutoff:          1E-12

    OpenMP threads:              1

  Minimum eigenvalue in the overlap matrix is 3.1170391997E-04.
  Using Symmetric Orthogonalization.

  SCF Guess: Superposition of Atomic Densities via on-the-fly atomic UHF.

  ==> Iterations <==

                        Total Energy        Delta E     RMS |[F,P]|

   @RHF iter SAD:  -613.15008826720577   -6.13150e+02   0.00000e+00
   @RHF iter   1:  -614.06299429434603   -9.12906e-01   2.36266e-03 DIIS
   @RHF iter   2:  -614.33580479527495   -2.72811e-01   9.81127e-04 DIIS
   @RHF iter   3:  -614.37699294278116   -4.11881e-02   2.40438e-04 DIIS
   @RHF iter   4:  -614.38064253526807   -3.64959e-03   9.78227e-05 DIIS
   @RHF iter   5:  -614.38111377240512   -4.71237e-04   1.70076e-05 DIIS
   @RHF iter   6:  -614.38113507959304   -2.13072e-05   5.70622e-06 DIIS
   @RHF iter   7:  -614.38113752756226   -2.44797e-06   1.71047e-06 DIIS
   @RHF iter   8:  -614.38113786047415   -3.32912e-07   6.34845e-07 DIIS
   @RHF iter   9:  -614.38113791693513   -5.64610e-08   2.99485e-07 DIIS
   @RHF iter  10:  -614.38113792957051   -1.26354e-08   1.30110e-07 DIIS
   @RHF iter  11:  -614.38113793393109   -4.36057e-09   5.15383e-08 DIIS
   @RHF iter  12:  -614.38113793457762   -6.46537e-10   2.49507e-08 DIIS
   @RHF iter  13:  -614.38113793466084   -8.32188e-11   6.69958e-09 DIIS
   @RHF iter  14:  -614.38113793466914   -8.29914e-12   2.17165e-09 DIIS
   @RHF iter  15:  -614.38113793467357   -4.43379e-12   6.88101e-10 DIIS
   @RHF iter  16:  -614.38113793466880    4.77485e-12   2.91381e-10 DIIS
   @RHF iter  17:  -614.38113793466982   -1.02318e-12   1.42496e-10 DIIS
   @RHF iter  18:  -614.38113793466448    5.34328e-12   6.05226e-11 DIIS
  Energy and wave function converged.

  ==> Post-Iterations <==

    Orbital Energies [Eh]
    ---------------------

    Doubly Occupied:

       1A    -20.579461     2A    -11.295590     3A    -11.245888
       4A    -11.238839     5A    -11.238028     6A    -11.234152
       7A    -11.233433     8A    -11.233265     9A    -11.233261
      10A    -11.232466    11A    -11.232162    12A    -11.229152
      13A    -11.226635    14A    -11.225929    15A    -11.216707
      16A     -1.394876    17A     -1.153518    18A     -1.142641
      19A     -1.046213    20A     -1.029686    21A     -1.013246
      22A     -1.010670    23A     -0.933918    24A     -0.918083
      25A     -0.839207    26A     -0.826496    27A     -0.797757
      28A     -0.795588    29A     -0.726111    30A     -0.692256
      31A     -0.662307    32A     -0.636402    33A     -0.634896
      34A     -0.631418    35A     -0.601784    36A     -0.585104
      37A     -0.583125    38A     -0.580949    39A     -0.575211
      40A     -0.565016    41A     -0.564209    42A     -0.559064
      43A     -0.541409    44A     -0.518978    45A     -0.495986
      46A     -0.488082    47A     -0.484742    48A     -0.481840
      49A     -0.475296    50A     -0.460451    51A     -0.336903
      52A     -0.329312    53A     -0.323387    54A     -0.295506

    Virtual:

      55A      0.130670    56A      0.132796    57A      0.139889
      58A      0.161563    59A      0.173111    60A      0.182905
      61A      0.196845    62A      0.202762    63A      0.208953
      64A      0.227520    65A      0.239887    66A      0.246143
      67A      0.251685    68A      0.264184    69A      0.268666
      70A      0.279754    71A      0.286407    72A      0.291944
      73A      0.318055    74A      0.337284    75A      0.358445
      76A      0.374073    77A      0.378106    78A      0.383254
      79A      0.430028    80A      0.447241    81A      0.459312
      82A      0.462125    83A      0.476512    84A      0.486613
      85A      0.492575    86A      0.501789    87A      0.509815
      88A      0.564556    89A      0.598718    90A      0.613781
      91A      0.616955    92A      0.638384    93A      0.656463
      94A      0.662620    95A      0.675659    96A      0.682297
      97A      0.689947    98A      0.697697    99A      0.706988
     100A      0.708639   101A      0.723525   102A      0.732310
     103A      0.734224   104A      0.737416   105A      0.745890
     106A      0.748494   107A      0.753407   108A      0.758181
     109A      0.761849   110A      0.776002   111A      0.783106
     112A      0.788174   113A      0.801616   114A      0.820051
     115A      0.827478   116A      0.846676   117A      0.849501
     118A      0.854402   119A      0.865748   120A      0.870170
     121A      0.879204   122A      0.883674   123A      0.886652
     124A      0.891714   125A      0.896707   126A      0.903568
     127A      0.904736   128A      0.910001   129A      0.916163
     130A      0.925346   131A      0.931140   132A      0.936415
     133A      0.957234   134A      0.964144   135A      0.977317
     136A      0.992157   137A      1.004424   138A      1.016616
     139A      1.030971   140A      1.054937   141A      1.088307
     142A      1.112455   143A      1.126126   144A      1.137295
     145A      1.143878   146A      1.144587   147A      1.149135
     148A      1.169278   149A      1.177806   150A      1.190543
     151A      1.202774   152A      1.227496   153A      1.231870
     154A      1.239211   155A      1.245686   156A      1.254778
     157A      1.261302   158A      1.266686   159A      1.286077
     160A      1.286305   161A      1.298080   162A      1.299498
     163A      1.308931   164A      1.314752   165A      1.323644
     166A      1.328671   167A      1.338454   168A      1.363208
     169A      1.367780   170A      1.401463   171A      1.457810
     172A      1.495118   173A      1.500134   174A      1.513153
     175A      1.519975   176A      1.540491   177A      1.563801
     178A      1.577984   179A      1.596344   180A      1.621583
     181A      1.634229   182A      1.667776   183A      1.695069
     184A      1.702109   185A      1.708846   186A      1.730399
     187A      1.736445   188A      1.753506   189A      1.760479
     190A      1.763452   191A      1.788620   192A      1.793792
     193A      1.810550   194A      1.819442   195A      1.826400
     196A      1.854302   197A      1.873124   198A      1.879890
     199A      1.885857   200A      1.899034   201A      1.909123
     202A      1.917688   203A      1.918266   204A      1.924284
     205A      1.926226   206A      1.934172   207A      1.941963
     208A      1.945884   209A      1.953708   210A      1.955814
     211A      1.959117   212A      1.969308   213A      1.983836
     214A      1.987091   215A      1.996721   216A      2.013150
     217A      2.030499   218A      2.045137   219A      2.052133
     220A      2.064312   221A      2.070244   222A      2.074372
     223A      2.076444   224A      2.083812   225A      2.120566
     226A      2.138319   227A      2.144068   228A      2.151237
     229A      2.156018   230A      2.168987   231A      2.174104
     232A      2.186906   233A      2.191878   234A      2.205536
     235A      2.241277   236A      2.262354   237A      2.267950
     238A      2.270791   239A      2.280138   240A      2.288037
     241A      2.299043   242A      2.313501   243A      2.317381
     244A      2.333059   245A      2.356270   246A      2.372206
     247A      2.430695   248A      2.456689   249A      2.458500
     250A      2.471200   251A      2.483426   252A      2.497330
     253A      2.513509   254A      2.535271   255A      2.547910
     256A      2.556868   257A      2.612836   258A      2.632393
     259A      2.644605   260A      2.731278   261A      2.748116
     262A      2.758529   263A      2.770074   264A      2.780999
     265A      2.792642   266A      2.806219   267A      2.814370
     268A      2.833850   269A      2.850713   270A      2.870494
     271A      2.872194   272A      2.938883   273A      2.960515
     274A      2.980103   275A      3.011942   276A      3.021328
     277A      3.037021   278A      3.091935   279A      3.116543
     280A      3.164133   281A      3.194548   282A      3.252664
     283A      3.287682   284A      3.295676   285A      3.347589
     286A      3.576695   287A      3.672441   288A      3.953756
     289A      3.971508   290A      4.189345

    Final Occupation by Irrep:
              A
    DOCC [    54 ]

  @RHF Final Energy:  -614.38113793466448

   => Energetics <=

    Nuclear Repulsion Energy =            893.9158516481455763
    One-Electron Energy =               -2607.3407595252342617
    Two-Electron Energy =                1099.0437699424239781
    Total Energy =                       -614.3811379346645936

Computation Completed

Properties will be evaluated at   0.000000,   0.000000,   0.000000 [a0]

Properties computed using the SCF density matrix

  Nuclear Dipole Moment: [e a0]
     X:     5.3113      Y:     5.2798      Z:     5.9027

  Electronic Dipole Moment: [e a0]
     X:    -5.3888      Y:    -5.4472      Z:    -5.4200

  Dipole Moment: [e a0]
     X:    -0.0775      Y:    -0.1674      Z:     0.4827     Total:     0.5168

  Dipole Moment: [D]
     X:    -0.1969      Y:    -0.4255      Z:     1.2270     Total:     1.3135

*** tstop() called on ds3 at Mon Apr 27 23:39:20 2020
Module time:
	user time   =     466.16 seconds =       7.77 minutes
	system time =     155.08 seconds =       2.58 minutes
	total time  =        602 seconds =      10.03 minutes
Total time:
	user time   =     466.16 seconds =       7.77 minutes
	system time =     155.08 seconds =       2.58 minutes
	total time  =        602 seconds =      10.03 minutes
                                     G D M A

                                 by Anthony Stone

                           version 2.2.06, 22 June 2011

               Distributed Multipoles from Gaussian wavefunctions

Starting at 23:39:20 on 27 Apr 2020

Using SCF density matrix from file ./SSI/SSI-126PHE-176TYR-1-dimer.test.2986.fchk

                         Distributed Multipole Analysis

Standard DMA

Positions and radii in angstrom
Multipole moments in atomic units, ea_0^k for rank k

C          x =  2.863447  y =  2.562056  z =  0.213399 angstrom
           Maximum rank =  0   Radius =  0.650 angstrom
                   Q00  =  -0.204018

C          x =  0.463447  y =  2.493056  z = -0.552601 angstrom
           Maximum rank =  0   Radius =  0.650 angstrom
                   Q00  =  -0.065010

C          x =  1.385447  y =  2.677056  z =  0.479399 angstrom
           Maximum rank =  0   Radius =  0.650 angstrom
                   Q00  =  -0.093284

C          x = -0.909553  y =  2.585056  z = -0.304601 angstrom
           Maximum rank =  0   Radius =  0.650 angstrom
                   Q00  =  -0.071747

C          x = -1.368553  y =  2.865056  z =  0.982399 angstrom
           Maximum rank =  0   Radius =  0.650 angstrom
                   Q00  =  -0.080606

C          x =  0.913447  y =  2.952056  z =  1.767399 angstrom
           Maximum rank =  0   Radius =  0.650 angstrom
                   Q00  =  -0.023456

C          x = -0.455553  y =  3.049056  z =  2.019399 angstrom
           Maximum rank =  0   Radius =  0.650 angstrom
                   Q00  =  -0.076657

H          x =  0.808447  y =  2.274056  z = -1.551601 angstrom
           Maximum rank =  0   Radius =  0.325 angstrom
                   Q00  =   0.058396

H          x = -1.616553  y =  2.437056  z = -1.109601 angstrom
           Maximum rank =  0   Radius =  0.325 angstrom
                   Q00  =   0.071084

H          x =  3.075447  y =  2.751056  z = -0.835601 angstrom
           Maximum rank =  0   Radius =  0.325 angstrom
                   Q00  =   0.101553

H          x =  3.147447  y =  1.527056  z =  0.412399 angstrom
           Maximum rank =  0   Radius =  0.325 angstrom
                   Q00  =   0.100157

H          x = -2.430553  y =  2.939056  z =  1.176399 angstrom
           Maximum rank =  0   Radius =  0.325 angstrom
                   Q00  =   0.064098

H          x =  1.579447  y =  3.055056  z =  2.608399 angstrom
           Maximum rank =  0   Radius =  0.325 angstrom
                   Q00  =   0.056106

H          x = -0.821553  y =  3.244056  z =  3.015399 angstrom
           Maximum rank =  0   Radius =  0.325 angstrom
                   Q00  =   0.066297

H          x =  3.480867  y =  3.213306  z =  0.849529 angstrom
           Maximum rank =  0   Radius =  0.325 angstrom
                   Q00  =   0.103750

C          x =  0.448447  y = -0.890944  z =  1.867399 angstrom
           Maximum rank =  0   Radius =  0.650 angstrom
                   Q00  =  -0.198910

C          x =  0.322447  y = -1.115944  z = -0.645601 angstrom
           Maximum rank =  0   Radius =  0.650 angstrom
                   Q00  =  -0.005132

C          x =  0.013447  y = -1.621944  z =  0.621399 angstrom
           Maximum rank =  0   Radius =  0.650 angstrom
                   Q00  =  -0.146220

C          x = -0.066553  y = -1.798944  z = -1.801601 angstrom
           Maximum rank =  0   Radius =  0.650 angstrom
                   Q00  =  -0.126243

C          x = -0.693553  y = -2.820944  z =  0.711399 angstrom
           Maximum rank =  0   Radius =  0.650 angstrom
                   Q00  =   0.031849

C          x = -0.771553  y = -2.998944  z = -1.694601 angstrom
           Maximum rank =  0   Radius =  0.650 angstrom
                   Q00  =   0.313956

C          x = -1.087553  y = -3.511944  z = -0.437601 angstrom
           Maximum rank =  0   Radius =  0.650 angstrom
                   Q00  =  -0.183852

O          x = -1.150553  y = -3.674944  z = -2.817601 angstrom
           Maximum rank =  0   Radius =  0.650 angstrom
                   Q00  =  -0.676059

H          x =  0.875447  y = -0.191944  z = -0.732601 angstrom
           Maximum rank =  0   Radius =  0.325 angstrom
                   Q00  =   0.064927

H          x =  0.170447  y = -1.409944  z = -2.776601 angstrom
           Maximum rank =  0   Radius =  0.325 angstrom
                   Q00  =   0.075310

H          x = -0.351553  y = -0.959944  z =  2.603399 angstrom
           Maximum rank =  0   Radius =  0.325 angstrom
                   Q00  =   0.094404

H          x =  0.561447  y =  0.161056  z =  1.611399 angstrom
           Maximum rank =  0   Radius =  0.325 angstrom
                   Q00  =   0.114604

H          x = -0.939553  y = -3.208944  z =  1.685399 angstrom
           Maximum rank =  0   Radius =  0.325 angstrom
                   Q00  =   0.065798

H          x = -1.630553  y = -4.442944  z = -0.348601 angstrom
           Maximum rank =  0   Radius =  0.325 angstrom
                   Q00  =   0.069590

H          x = -1.627553  y = -4.485944  z = -2.603601 angstrom
           Maximum rank =  0   Radius =  0.325 angstrom
                   Q00  =   0.406130

H          x =  1.390307  y = -1.251324  z =  2.306739 angstrom
           Maximum rank =  0   Radius =  0.325 angstrom
                   Q00  =   0.093187

Total multipoles referred to origin at
           x =   0.000000,  y =    0.000000,  z =    0.000000 angstrom
                   Q00  =  -0.000000

Finished at 23:39:20 on 27 Apr 2020

  DMA results are available in the Python driver through the
	  variable('DMA DISTRIBUTED MULTIPOLES')
  and
	  variable('DMA TOTAL MULTIPOLES')
  commands.

    Psi4 stopped on: Monday, 27 April 2020 11:39PM
    Psi4 wall time for execution: 0:10:02.94

*** Psi4 exiting successfully. Buy a developer a beer!
