                               Psi4 1.3.2 release

  ==> Input File <==

--------------------------------------------------------------------------
import numpy as np
set {scf_type pk
basis cc-pvdz
d_convergence 10
gdma_switch   0
gdma_limit    0
gdma_origin   [ 0.0,  0.0,  0.0 ]
}
molecule test {
    units Angstrom
    0 1
    --
    0 1
    C               -0.273817653090019     1.786853087932419    -0.744022456619341
    C               -1.221817653090019     2.448853087932420    -1.734022456619341
    H               -0.183817653090019     2.386853087932419     0.160977543380659
    H               -0.663817653090019     0.809853087932419    -0.472022456619341
    H                0.708182346909981     1.648853087932419    -1.196022456619341
    H               -2.144817653090019     2.719853087932420    -1.221022456619341
    H               -1.474817653090019     1.700853087932420    -2.481022456619340
    H               -0.797479653090019     3.336235087932419    -2.226455456619341
    C                0.740182346909981    -1.392146912067580     0.997977543380659
    C                0.761182346909981    -2.838146912067581     1.473977543380659
    H                0.004182346909981    -1.269146912067580     0.204977543380659
    H                0.479182346909981    -0.730146912067581     1.820977543380659
    H                1.725182346909981    -1.107146912067580     0.625977543380659
    H               -0.249817653090019    -3.133146912067581     1.761977543380659
    H                1.376182346909981    -2.882146912067581     2.365977543380660
    H                1.153437346909981    -3.545209912067581     0.728190543380659

}
e, wfn = energy('scf', return_wfn=True)
gdma(wfn)
dmavals = variable('DMA DISTRIBUTED MULTIPOLES')
charges = np.array(dmavals)
print(charges)
np.save('SSI-249ILE-276ILE-1-dimer.npy', np.array(charges))--------------------------------------------------------------------------

*** tstart() called on ds3
*** at Tue Apr 28 13:54:01 2020

   => Loading Basis Set <=

    Name: CC-PVDZ
    Role: ORBITAL
    Keyword: BASIS
    atoms 1-2, 9-10  entry C          line   138 file /theoryfs2/ds/metcalf/miniconda2/envs/tf2gpu/share/psi4/basis/cc-pvdz.gbs
    atoms 3-8, 11-16 entry H          line    22 file /theoryfs2/ds/metcalf/miniconda2/envs/tf2gpu/share/psi4/basis/cc-pvdz.gbs

         ---------------------------------------------------------
                                   SCF
               by Justin Turney, Rob Parrish, Andy Simmonett
                          and Daniel G. A. Smith
                              RHF Reference
                        1 Threads,    500 MiB Core
         ---------------------------------------------------------

  ==> Geometry <==

    Molecular point group: c1
    Full point group: C1

    Geometry (in Angstrom), charge = 0, multiplicity = 1:

       Center              X                  Y                   Z               Mass
    ------------   -----------------  -----------------  -----------------  -----------------
         C           -0.273817653090     1.786853087932    -0.744022456619    12.000000000000
         C           -1.221817653090     2.448853087932    -1.734022456619    12.000000000000
         H           -0.183817653090     2.386853087932     0.160977543381     1.007825032230
         H           -0.663817653090     0.809853087932    -0.472022456619     1.007825032230
         H            0.708182346910     1.648853087932    -1.196022456619     1.007825032230
         H           -2.144817653090     2.719853087932    -1.221022456619     1.007825032230
         H           -1.474817653090     1.700853087932    -2.481022456619     1.007825032230
         H           -0.797479653090     3.336235087932    -2.226455456619     1.007825032230
         C            0.740182346910    -1.392146912068     0.997977543381    12.000000000000
         C            0.761182346910    -2.838146912068     1.473977543381    12.000000000000
         H            0.004182346910    -1.269146912068     0.204977543381     1.007825032230
         H            0.479182346910    -0.730146912068     1.820977543381     1.007825032230
         H            1.725182346910    -1.107146912068     0.625977543381     1.007825032230
         H           -0.249817653090    -3.133146912068     1.761977543381     1.007825032230
         H            1.376182346910    -2.882146912068     2.365977543381     1.007825032230
         H            1.153437346910    -3.545209912068     0.728190543381     1.007825032230

  Running in c1 symmetry.

  Rotational constants: A =      0.85026  B =      0.03854  C =      0.03793 [cm^-1]
  Rotational constants: A =  25490.11366  B =   1155.53099  C =   1137.08467 [MHz]
  Nuclear repulsion =  119.517452734768540

  Charge       = 0
  Multiplicity = 1
  Electrons    = 36
  Nalpha       = 18
  Nbeta        = 18

  ==> Algorithm <==

  SCF Algorithm Type is PK.
  DIIS enabled.
  MOM disabled.
  Fractional occupation disabled.
  Guess Type is SAD.
  Energy threshold   = 1.00e-06
  Density threshold  = 1.00e-10
  Integral threshold = 0.00e+00

  ==> Primary Basis <==

  Basis Set: CC-PVDZ
    Blend: CC-PVDZ
    Number of shells: 60
    Number of basis function: 116
    Number of Cartesian functions: 120
    Spherical Harmonics?: true
    Max angular momentum: 2

  ==> Pre-Iterations <==

   -------------------------------------------------------
    Irrep   Nso     Nmo     Nalpha   Nbeta   Ndocc  Nsocc
   -------------------------------------------------------
     A        116     116       0       0       0       0
   -------------------------------------------------------
    Total     116     116      18      18      18       0
   -------------------------------------------------------

  ==> Integral Setup <==

  Using integral reordering PK algorithm.
  Sizing the integral batches needed.
  Building batch lookup table.
   Calculation information:
      Number of atoms:                  16
      Number of AO shells:              60
      Number of primitives:            148
      Number of atomic orbitals:       120
      Number of basis functions:       116

      Integral cutoff                 1.00e-12
      Number of threads:                 1

	Batch   1 pq = [       0,    6786] index = [             0,23028291] size =     23028291
  Task number: 3
  Buffer size: 11059200
  Buffer per thread: 2
  We computed 1303953 shell quartets total.
  Whereas there are 1675365 unique shell quartets.

  ==> DiskJK: Disk-Based J/K Matrices <==

    J tasked:                  Yes
    K tasked:                  Yes
    wK tasked:                  No
    Memory [MiB]:              375
    Schwarz Cutoff:          1E-12

    OpenMP threads:              1

  Minimum eigenvalue in the overlap matrix is 5.9862871108E-03.
  Using Symmetric Orthogonalization.

  SCF Guess: Superposition of Atomic Densities via on-the-fly atomic UHF.

  ==> Iterations <==

                        Total Energy        Delta E     RMS |[F,P]|

   @RHF iter SAD:  -157.38243792386973   -1.57382e+02   0.00000e+00
   @RHF iter   1:  -158.30495830621143   -9.22520e-01   4.24391e-03 DIIS
   @RHF iter   2:  -158.43962889836473   -1.34671e-01   1.80997e-03 DIIS
   @RHF iter   3:  -158.46334179507795   -2.37129e-02   3.50932e-04 DIIS
   @RHF iter   4:  -158.46517801049859   -1.83622e-03   3.90801e-05 DIIS
   @RHF iter   5:  -158.46520186383577   -2.38533e-05   6.77829e-06 DIIS
   @RHF iter   6:  -158.46520253065316   -6.66817e-07   1.16165e-06 DIIS
   @RHF iter   7:  -158.46520254328198   -1.26288e-08   3.16033e-07 DIIS
   @RHF iter   8:  -158.46520254418664   -9.04663e-10   3.62047e-08 DIIS
   @RHF iter   9:  -158.46520254420739   -2.07478e-11   5.21975e-09 DIIS
   @RHF iter  10:  -158.46520254420798   -5.96856e-13   1.21150e-09 DIIS
   @RHF iter  11:  -158.46520254420821   -2.27374e-13   3.25725e-10 DIIS
   @RHF iter  12:  -158.46520254420759    6.25278e-13   7.29048e-11 DIIS
  Energy and wave function converged.

  ==> Post-Iterations <==

    Orbital Energies [Eh]
    ---------------------

    Doubly Occupied:

       1A    -11.216943     2A    -11.216269     3A    -11.215865
       4A    -11.214209     5A     -1.020693     6A     -1.018844
       7A     -0.840005     8A     -0.833980     9A     -0.602420
      10A     -0.598735    11A     -0.597360    12A     -0.595457
      13A     -0.509082    14A     -0.498254    15A     -0.488237
      16A     -0.485774    17A     -0.483145    18A     -0.477532

    Virtual:

      19A      0.177050    20A      0.194650    21A      0.221100
      22A      0.237684    23A      0.241128    24A      0.260239
      25A      0.263992    26A      0.279387    27A      0.284103
      28A      0.290376    29A      0.300061    30A      0.343570
      31A      0.374490    32A      0.424022    33A      0.565931
      34A      0.592302    35A      0.596650    36A      0.603541
      37A      0.604270    38A      0.658261    39A      0.671577
      40A      0.678269    41A      0.717772    42A      0.745248
      43A      0.825358    44A      0.880614    45A      0.891566
      46A      0.893556    47A      0.896308    48A      0.896648
      49A      0.906302    50A      0.914249    51A      0.920078
      52A      0.926600    53A      0.931105    54A      0.940886
      55A      0.967838    56A      0.995779    57A      1.119832
      58A      1.127330    59A      1.131173    60A      1.147707
      61A      1.214937    62A      1.270122    63A      1.462424
      64A      1.469914    65A      1.483067    66A      1.497970
      67A      1.580905    68A      1.594318    69A      1.685459
      70A      1.686019    71A      1.696812    72A      1.700327
      73A      1.846624    74A      1.856579    75A      1.869920
      76A      1.875984    77A      1.887764    78A      1.911487
      79A      1.941857    80A      1.943118    81A      1.949687
      82A      1.951095    83A      1.954735    84A      1.959318
      85A      1.961095    86A      1.964060    87A      1.978179
      88A      2.068975    89A      2.090370    90A      2.111254
      91A      2.132815    92A      2.146103    93A      2.303507
      94A      2.305974    95A      2.314147    96A      2.355066
      97A      2.440637    98A      2.450472    99A      2.468735
     100A      2.474062   101A      2.557399   102A      2.572504
     103A      2.585374   104A      2.594959   105A      2.763840
     106A      2.776356   107A      2.786453   108A      2.796543
     109A      2.846722   110A      2.856372   111A      2.871012
     112A      2.874130   113A      2.944571   114A      2.950485
     115A      2.965681   116A      2.971733

    Final Occupation by Irrep:
              A
    DOCC [    18 ]

  @RHF Final Energy:  -158.46520254420759

   => Energetics <=

    Nuclear Repulsion Energy =            119.5174527347685398
    One-Electron Energy =                -448.1397065238746222
    Two-Electron Energy =                 170.1570512448984971
    Total Energy =                       -158.4652025442075853

Computation Completed

Properties will be evaluated at   0.000000,   0.000000,   0.000000 [a0]

Properties computed using the SCF density matrix

  Nuclear Dipole Moment: [e a0]
     X:    -0.0640      Y:    -0.0604      Z:     0.0680

  Electronic Dipole Moment: [e a0]
     X:     0.0622      Y:     0.0456      Z:    -0.0494

  Dipole Moment: [e a0]
     X:    -0.0017      Y:    -0.0148      Z:     0.0185     Total:     0.0238

  Dipole Moment: [D]
     X:    -0.0043      Y:    -0.0377      Z:     0.0471     Total:     0.0605

*** tstop() called on ds3 at Tue Apr 28 13:54:11 2020
Module time:
	user time   =       7.24 seconds =       0.12 minutes
	system time =       3.57 seconds =       0.06 minutes
	total time  =         10 seconds =       0.17 minutes
Total time:
	user time   =       7.24 seconds =       0.12 minutes
	system time =       3.57 seconds =       0.06 minutes
	total time  =         10 seconds =       0.17 minutes
                                     G D M A

                                 by Anthony Stone

                           version 2.2.06, 22 June 2011

               Distributed Multipoles from Gaussian wavefunctions

Starting at 13:54:11 on 28 Apr 2020

Using SCF density matrix from file ./SSI/SSI-249ILE-276ILE-1-dimer.test.27932.fchk

                         Distributed Multipole Analysis

Standard DMA

Positions and radii in angstrom
Multipole moments in atomic units, ea_0^k for rank k

C          x = -0.273818  y =  1.786853  z = -0.744022 angstrom
           Maximum rank =  0   Radius =  0.650 angstrom
                   Q00  =  -0.236467

C          x = -1.221818  y =  2.448853  z = -1.734022 angstrom
           Maximum rank =  0   Radius =  0.650 angstrom
                   Q00  =  -0.233911

H          x = -0.183818  y =  2.386853  z =  0.160978 angstrom
           Maximum rank =  0   Radius =  0.325 angstrom
                   Q00  =   0.077125

H          x = -0.663818  y =  0.809853  z = -0.472022 angstrom
           Maximum rank =  0   Radius =  0.325 angstrom
                   Q00  =   0.081139

H          x =  0.708182  y =  1.648853  z = -1.196022 angstrom
           Maximum rank =  0   Radius =  0.325 angstrom
                   Q00  =   0.078332

H          x = -2.144818  y =  2.719853  z = -1.221022 angstrom
           Maximum rank =  0   Radius =  0.325 angstrom
                   Q00  =   0.077343

H          x = -1.474818  y =  1.700853  z = -2.481022 angstrom
           Maximum rank =  0   Radius =  0.325 angstrom
                   Q00  =   0.074715

H          x = -0.797480  y =  3.336235  z = -2.226455 angstrom
           Maximum rank =  0   Radius =  0.325 angstrom
                   Q00  =   0.081087

C          x =  0.740182  y = -1.392147  z =  0.997978 angstrom
           Maximum rank =  0   Radius =  0.650 angstrom
                   Q00  =  -0.232731

C          x =  0.761182  y = -2.838147  z =  1.473978 angstrom
           Maximum rank =  0   Radius =  0.650 angstrom
                   Q00  =  -0.237071

H          x =  0.004182  y = -1.269147  z =  0.204978 angstrom
           Maximum rank =  0   Radius =  0.325 angstrom
                   Q00  =   0.075303

H          x =  0.479182  y = -0.730147  z =  1.820978 angstrom
           Maximum rank =  0   Radius =  0.325 angstrom
                   Q00  =   0.079729

H          x =  1.725182  y = -1.107147  z =  0.625978 angstrom
           Maximum rank =  0   Radius =  0.325 angstrom
                   Q00  =   0.079519

H          x = -0.249818  y = -3.133147  z =  1.761978 angstrom
           Maximum rank =  0   Radius =  0.325 angstrom
                   Q00  =   0.076857

H          x =  1.376182  y = -2.882147  z =  2.365978 angstrom
           Maximum rank =  0   Radius =  0.325 angstrom
                   Q00  =   0.077034

H          x =  1.153437  y = -3.545210  z =  0.728191 angstrom
           Maximum rank =  0   Radius =  0.325 angstrom
                   Q00  =   0.081997

Total multipoles referred to origin at
           x =   0.000000,  y =    0.000000,  z =    0.000000 angstrom
                   Q00  =  -0.000000

Finished at 13:54:11 on 28 Apr 2020

  DMA results are available in the Python driver through the
	  variable('DMA DISTRIBUTED MULTIPOLES')
  and
	  variable('DMA TOTAL MULTIPOLES')
  commands.

    Psi4 stopped on: Tuesday, 28 April 2020 01:54PM
    Psi4 wall time for execution: 0:00:10.62

*** Psi4 exiting successfully. Buy a developer a beer!
