                               Psi4 1.3.2 release

  ==> Input File <==

--------------------------------------------------------------------------
import numpy as np
set {scf_type pk
basis cc-pvdz
d_convergence 10
gdma_switch   0
gdma_limit    0
gdma_origin   [ 0.0,  0.0,  0.0 ]
}
molecule test {
    units Angstrom
    -1 1
    --
    -1 1
    C               -0.025165489007931    -2.720020816910639    -1.249932716170971
    C                0.658834510992069    -1.399020816910639    -0.931932716170971
    C                1.376834510992069    -1.064020816910639     0.201067283829029
    C                0.673834510992069    -0.231020816910639    -1.765932716170971
    C                1.436834510992069     0.759979183089361    -1.096932716170971
    C                0.141834510992069     0.072979183089361    -3.035932716170970
    C                1.631834510992069     2.025979183089361    -1.632932716170971
    C                0.346834510992069     1.340979183089361    -3.570932716170971
    C                1.088834510992069     2.299979183089361    -2.887932716170971
    N                1.841834510992069     0.227979183089361     0.100067283829029
    H               -0.361165489007931    -2.665020816910638    -2.284932716170970
    H               -0.912165489007931    -2.821020816910639    -0.624932716170971
    H                1.542834510992069    -1.706020816910639     1.058067283829029
    H                2.355834510992069     0.719979183089361     0.827067283829029
    H               -0.431165489007931    -0.666020816910639    -3.577932716170971
    H                2.216834510992069     2.766979183089362    -1.109932716170971
    H               -0.066165489007931     1.579979183089361    -4.542932716170971
    H                1.243834510992069     3.273979183089362    -3.335932716170971
    H                0.629624510992069    -3.597851816910639    -1.146662716170971
    C               -1.641165489007931    -0.873020816910639     1.976067283829029
    C               -2.978165489007931    -0.543020816910639     1.296067283829029
    C               -1.286165489007931    -0.053020816910639     3.241067283829029
    O               -1.948165489007931     0.979979183089361     3.509067283829029
    O               -0.344165489007931    -0.438020816910639     4.003067283829029
    H               -1.569165489007931    -1.936020816910639     2.126067283829030
    H               -0.874165489007931    -0.656020816910639     1.243067283829029
    H               -3.734165489007931    -0.317020816910639     2.048067283829029
    H               -3.301165489007931    -1.445020816910639     0.774067283829029
    H               -2.917175489007931     0.263496183089361     0.550537283829029

}
e, wfn = energy('scf', return_wfn=True)
gdma(wfn)
dmavals = variable('DMA DISTRIBUTED MULTIPOLES')
charges = np.array(dmavals)
print(charges)
np.save('SSI-030TRP-213GLU-1-dimer.npy', np.array(charges))--------------------------------------------------------------------------

*** tstart() called on ds3
*** at Tue Apr 28 12:41:06 2020

   => Loading Basis Set <=

    Name: CC-PVDZ
    Role: ORBITAL
    Keyword: BASIS
    atoms 1-9, 20-22   entry C          line   138 file /theoryfs2/ds/metcalf/miniconda2/envs/tf2gpu/share/psi4/basis/cc-pvdz.gbs
    atoms 10           entry N          line   168 file /theoryfs2/ds/metcalf/miniconda2/envs/tf2gpu/share/psi4/basis/cc-pvdz.gbs
    atoms 11-19, 25-29 entry H          line    22 file /theoryfs2/ds/metcalf/miniconda2/envs/tf2gpu/share/psi4/basis/cc-pvdz.gbs
    atoms 23-24        entry O          line   198 file /theoryfs2/ds/metcalf/miniconda2/envs/tf2gpu/share/psi4/basis/cc-pvdz.gbs

         ---------------------------------------------------------
                                   SCF
               by Justin Turney, Rob Parrish, Andy Simmonett
                          and Daniel G. A. Smith
                              RHF Reference
                        1 Threads,    500 MiB Core
         ---------------------------------------------------------

  ==> Geometry <==

    Molecular point group: c1
    Full point group: C1

    Geometry (in Angstrom), charge = -1, multiplicity = 1:

       Center              X                  Y                   Z               Mass
    ------------   -----------------  -----------------  -----------------  -----------------
         C           -0.025165489008    -2.720020816911    -1.249932716171    12.000000000000
         C            0.658834510992    -1.399020816911    -0.931932716171    12.000000000000
         C            1.376834510992    -1.064020816911     0.201067283829    12.000000000000
         C            0.673834510992    -0.231020816911    -1.765932716171    12.000000000000
         C            1.436834510992     0.759979183089    -1.096932716171    12.000000000000
         C            0.141834510992     0.072979183089    -3.035932716171    12.000000000000
         C            1.631834510992     2.025979183089    -1.632932716171    12.000000000000
         C            0.346834510992     1.340979183089    -3.570932716171    12.000000000000
         C            1.088834510992     2.299979183089    -2.887932716171    12.000000000000
         N            1.841834510992     0.227979183089     0.100067283829    14.003074004430
         H           -0.361165489008    -2.665020816911    -2.284932716171     1.007825032230
         H           -0.912165489008    -2.821020816911    -0.624932716171     1.007825032230
         H            1.542834510992    -1.706020816911     1.058067283829     1.007825032230
         H            2.355834510992     0.719979183089     0.827067283829     1.007825032230
         H           -0.431165489008    -0.666020816911    -3.577932716171     1.007825032230
         H            2.216834510992     2.766979183089    -1.109932716171     1.007825032230
         H           -0.066165489008     1.579979183089    -4.542932716171     1.007825032230
         H            1.243834510992     3.273979183089    -3.335932716171     1.007825032230
         H            0.629624510992    -3.597851816911    -1.146662716171     1.007825032230
         C           -1.641165489008    -0.873020816911     1.976067283829    12.000000000000
         C           -2.978165489008    -0.543020816911     1.296067283829    12.000000000000
         C           -1.286165489008    -0.053020816911     3.241067283829    12.000000000000
         O           -1.948165489008     0.979979183089     3.509067283829    15.994914619570
         O           -0.344165489008    -0.438020816911     4.003067283829    15.994914619570
         H           -1.569165489008    -1.936020816911     2.126067283829     1.007825032230
         H           -0.874165489008    -0.656020816911     1.243067283829     1.007825032230
         H           -3.734165489008    -0.317020816911     2.048067283829     1.007825032230
         H           -3.301165489008    -1.445020816911     0.774067283829     1.007825032230
         H           -2.917175489008     0.263496183089     0.550537283829     1.007825032230

  Running in c1 symmetry.

  Rotational constants: A =      0.02902  B =      0.01028  C =      0.00972 [cm^-1]
  Rotational constants: A =    870.10070  B =    308.33242  C =    291.46310 [MHz]
  Nuclear repulsion =  920.657832132459930

  Charge       = -1
  Multiplicity = 1
  Electrons    = 110
  Nalpha       = 55
  Nbeta        = 55

  ==> Algorithm <==

  SCF Algorithm Type is PK.
  DIIS enabled.
  MOM disabled.
  Fractional occupation disabled.
  Guess Type is SAD.
  Energy threshold   = 1.00e-06
  Density threshold  = 1.00e-10
  Integral threshold = 0.00e+00

  ==> Primary Basis <==

  Basis Set: CC-PVDZ
    Blend: CC-PVDZ
    Number of shells: 132
    Number of basis function: 280
    Number of Cartesian functions: 295
    Spherical Harmonics?: true
    Max angular momentum: 2

  ==> Pre-Iterations <==

   -------------------------------------------------------
    Irrep   Nso     Nmo     Nalpha   Nbeta   Ndocc  Nsocc
   -------------------------------------------------------
     A        280     280       0       0       0       0
   -------------------------------------------------------
    Total     280     280      55      55      55       0
   -------------------------------------------------------

  ==> Integral Setup <==

  Using integral reordering PK algorithm.
  Sizing the integral batches needed.
  Building batch lookup table.
   Calculation information:
      Number of atoms:                  29
      Number of AO shells:             132
      Number of primitives:            400
      Number of atomic orbitals:       295
      Number of basis functions:       280

      Integral cutoff                 1.00e-12
      Number of threads:                 1

	Batch   1 pq = [       0,    9405] index = [             0,44231715] size =     44231715
	Batch   2 pq = [    9405,   13301] index = [      44231715,88464951] size =     44233236
	Batch   3 pq = [   13301,   16290] index = [      88464951,132690195] size =     44225244
	Batch   4 pq = [   16290,   18810] index = [     132690195,176917455] size =     44227260
	Batch   5 pq = [   18810,   21030] index = [     176917455,221140965] size =     44223510
	Batch   6 pq = [   21030,   23037] index = [     221140965,265363203] size =     44222238
	Batch   7 pq = [   23037,   24883] index = [     265363203,309594286] size =     44231083
	Batch   8 pq = [   24883,   26601] index = [     309594286,353819901] size =     44225615
	Batch   9 pq = [   26601,   28214] index = [     353819901,398029005] size =     44209104
	Batch  10 pq = [   28214,   29740] index = [     398029005,442248670] size =     44219665
	Batch  11 pq = [   29740,   31191] index = [     442248670,486454836] size =     44206166
	Batch  12 pq = [   31191,   32578] index = [     486454836,530679331] size =     44224495
	Batch  13 pq = [   32578,   33908] index = [     530679331,574893186] size =     44213855
	Batch  14 pq = [   33908,   35188] index = [     574893186,619115266] size =     44222080
	Batch  15 pq = [   35188,   36423] index = [     619115266,663335676] size =     44220410
	Batch  16 pq = [   36423,   37617] index = [     663335676,707538153] size =     44202477
	Batch  17 pq = [   37617,   38775] index = [     707538153,751769700] size =     44231547
	Batch  18 pq = [   38775,   39340] index = [     751769700,773837470] size =     22067770
  Task number: 70
  Buffer size: 11059200
  Buffer per thread: 2
  We computed 38581450 shell quartets total.
  Whereas there are 38531031 unique shell quartets.
     0.13 percent of shell quartets recomputed by reordering.

  ==> DiskJK: Disk-Based J/K Matrices <==

    J tasked:                  Yes
    K tasked:                  Yes
    wK tasked:                  No
    Memory [MiB]:              375
    Schwarz Cutoff:          1E-12

    OpenMP threads:              1

  Minimum eigenvalue in the overlap matrix is 2.4672565687E-04.
  Using Symmetric Orthogonalization.

  SCF Guess: Superposition of Atomic Densities via on-the-fly atomic UHF.

  ==> Iterations <==

                        Total Energy        Delta E     RMS |[F,P]|

   @RHF iter SAD:  -665.37252325784209   -6.65373e+02   0.00000e+00
   @RHF iter   1:  -666.39809496191970   -1.02557e+00   3.04313e-03 DIIS
   @RHF iter   2:  -666.71324742437798   -3.15152e-01   1.65230e-03 DIIS
   @RHF iter   3:  -666.79809634252183   -8.48489e-02   3.11643e-04 DIIS
   @RHF iter   4:  -666.80306197907635   -4.96564e-03   1.19571e-04 DIIS
   @RHF iter   5:  -666.80377717179374   -7.15193e-04   2.12986e-05 DIIS
   @RHF iter   6:  -666.80381127572116   -3.41039e-05   1.11831e-05 DIIS
   @RHF iter   7:  -666.80381921320884   -7.93749e-06   3.15599e-06 DIIS
   @RHF iter   8:  -666.80382077060108   -1.55739e-06   1.36706e-06 DIIS
   @RHF iter   9:  -666.80382107483535   -3.04234e-07   5.35536e-07 DIIS
   @RHF iter  10:  -666.80382113396217   -5.91268e-08   2.12497e-07 DIIS
   @RHF iter  11:  -666.80382114435793   -1.03958e-08   9.11952e-08 DIIS
   @RHF iter  12:  -666.80382114646886   -2.11094e-09   4.33136e-08 DIIS
   @RHF iter  13:  -666.80382114683880   -3.69937e-10   1.42418e-08 DIIS
   @RHF iter  14:  -666.80382114687973   -4.09273e-11   5.52338e-09 DIIS
   @RHF iter  15:  -666.80382114688018   -4.54747e-13   1.86914e-09 DIIS
   @RHF iter  16:  -666.80382114687745    2.72848e-12   8.80443e-10 DIIS
   @RHF iter  17:  -666.80382114687563    1.81899e-12   5.13612e-10 DIIS
   @RHF iter  18:  -666.80382114688041   -4.77485e-12   1.93751e-10 DIIS
   @RHF iter  19:  -666.80382114687870    1.70530e-12   7.15180e-11 DIIS
  Energy and wave function converged.

  ==> Post-Iterations <==

    Orbital Energies [Eh]
    ---------------------

    Doubly Occupied:

       1A    -20.260531     2A    -20.254844     3A    -15.513148
       4A    -11.177824     5A    -11.176673     6A    -11.150375
       7A    -11.150082     8A    -11.148309     9A    -11.143449
      10A    -11.142672    11A    -11.139119    12A    -11.129576
      13A    -11.118207    14A    -11.071883    15A    -11.053208
      16A     -1.203930    17A     -1.139773    18A     -1.045592
      19A     -1.024146    20A     -0.981306    21A     -0.914189
      22A     -0.900465    23A     -0.869057    24A     -0.843277
      25A     -0.755326    26A     -0.717887    27A     -0.703064
      28A     -0.667064    29A     -0.633477    30A     -0.573803
      31A     -0.559780    32A     -0.519523    33A     -0.511804
      34A     -0.508938    35A     -0.499436    36A     -0.479427
      37A     -0.467692    38A     -0.454329    39A     -0.449578
      40A     -0.440780    41A     -0.427321    42A     -0.410339
      43A     -0.389612    44A     -0.384043    45A     -0.379434
      46A     -0.358672    47A     -0.351606    48A     -0.327912
      49A     -0.296131    50A     -0.284111    51A     -0.213817
      52A     -0.185579    53A     -0.178588    54A     -0.166220
      55A     -0.156090

    Virtual:

      56A      0.207066    57A      0.254162    58A      0.265554
      59A      0.273541    60A      0.284076    61A      0.302042
      62A      0.307891    63A      0.318431    64A      0.328584
      65A      0.342924    66A      0.354464    67A      0.366593
      68A      0.395514    69A      0.405816    70A      0.415670
      71A      0.419251    72A      0.447137    73A      0.456071
      74A      0.465178    75A      0.479872    76A      0.498585
      77A      0.507282    78A      0.526076    79A      0.548036
      80A      0.552920    81A      0.565887    82A      0.601905
      83A      0.608679    84A      0.638526    85A      0.686060
      86A      0.691535    87A      0.702901    88A      0.722323
      89A      0.726364    90A      0.731215    91A      0.744150
      92A      0.762187    93A      0.775428    94A      0.783891
      95A      0.791927    96A      0.795667    97A      0.810725
      98A      0.822037    99A      0.824932   100A      0.834494
     101A      0.838935   102A      0.845582   103A      0.853544
     104A      0.868742   105A      0.873689   106A      0.897027
     107A      0.914146   108A      0.927041   109A      0.930209
     110A      0.944198   111A      0.955795   112A      0.962055
     113A      0.970154   114A      0.976275   115A      0.982239
     116A      0.984796   117A      1.010046   118A      1.023134
     119A      1.028877   120A      1.030900   121A      1.036352
     122A      1.039611   123A      1.053271   124A      1.061077
     125A      1.062270   126A      1.067770   127A      1.077859
     128A      1.095524   129A      1.100879   130A      1.118535
     131A      1.128605   132A      1.136138   133A      1.158587
     134A      1.172133   135A      1.180952   136A      1.214447
     137A      1.223428   138A      1.229193   139A      1.232601
     140A      1.250505   141A      1.284064   142A      1.290660
     143A      1.302166   144A      1.311618   145A      1.317210
     146A      1.323290   147A      1.333410   148A      1.362783
     149A      1.370376   150A      1.381717   151A      1.400298
     152A      1.412372   153A      1.415947   154A      1.425360
     155A      1.444684   156A      1.451219   157A      1.482465
     158A      1.499737   159A      1.516731   160A      1.530586
     161A      1.539779   162A      1.593526   163A      1.602163
     164A      1.625416   165A      1.634647   166A      1.640017
     167A      1.662048   168A      1.664403   169A      1.687894
     170A      1.709868   171A      1.722911   172A      1.739817
     173A      1.744820   174A      1.771623   175A      1.775818
     176A      1.809408   177A      1.826107   178A      1.835997
     179A      1.841387   180A      1.843423   181A      1.862615
     182A      1.878826   183A      1.898095   184A      1.919685
     185A      1.925506   186A      1.939763   187A      1.955239
     188A      1.967905   189A      1.975377   190A      1.981376
     191A      1.988652   192A      1.995820   193A      2.008440
     194A      2.029764   195A      2.039966   196A      2.050312
     197A      2.059815   198A      2.070911   199A      2.076209
     200A      2.086240   201A      2.101647   202A      2.103571
     203A      2.124145   204A      2.131140   205A      2.150686
     206A      2.159117   207A      2.169519   208A      2.181222
     209A      2.188519   210A      2.192350   211A      2.210236
     212A      2.214144   213A      2.233509   214A      2.244543
     215A      2.247524   216A      2.258010   217A      2.269225
     218A      2.274676   219A      2.302408   220A      2.304413
     221A      2.332992   222A      2.352905   223A      2.376924
     224A      2.392558   225A      2.399520   226A      2.406522
     227A      2.415850   228A      2.429067   229A      2.454297
     230A      2.480931   231A      2.485291   232A      2.492243
     233A      2.533852   234A      2.544853   235A      2.555954
     236A      2.586345   237A      2.606751   238A      2.643069
     239A      2.666519   240A      2.679157   241A      2.706218
     242A      2.749342   243A      2.758589   244A      2.762056
     245A      2.796825   246A      2.823827   247A      2.838056
     248A      2.843203   249A      2.863371   250A      2.875566
     251A      2.880445   252A      2.889001   253A      2.919343
     254A      2.935937   255A      2.954011   256A      2.974127
     257A      3.002642   258A      3.032301   259A      3.045442
     260A      3.068904   261A      3.100832   262A      3.145945
     263A      3.153197   264A      3.171309   265A      3.208660
     266A      3.248307   267A      3.282817   268A      3.291952
     269A      3.299968   270A      3.358207   271A      3.372246
     272A      3.451134   273A      3.637229   274A      3.746571
     275A      3.800313   276A      3.834464   277A      4.026389
     278A      4.034954   279A      4.065099   280A      4.188146

    Final Occupation by Irrep:
              A
    DOCC [    55 ]

  @RHF Final Energy:  -666.80382114687870

   => Energetics <=

    Nuclear Repulsion Energy =            920.6578321324599301
    One-Electron Energy =               -2750.9172742745649884
    Two-Electron Energy =                1163.4556209952261270
    Total Energy =                       -666.8038211468788177

Computation Completed

Properties will be evaluated at   0.000000,   0.000000,   0.000000 [a0]

Properties computed using the SCF density matrix

  Nuclear Dipole Moment: [e a0]
     X:    -5.8076      Y:    -6.7531      Z:    -7.4605

  Electronic Dipole Moment: [e a0]
     X:     8.3355      Y:     6.0363      Z:     1.5903

  Dipole Moment: [e a0]
     X:     2.5279      Y:    -0.7168      Z:    -5.8702     Total:     6.4315

  Dipole Moment: [D]
     X:     6.4252      Y:    -1.8218      Z:   -14.9207     Total:    16.3471

*** tstop() called on ds3 at Tue Apr 28 12:51:14 2020
Module time:
	user time   =     332.72 seconds =       5.55 minutes
	system time =     138.47 seconds =       2.31 minutes
	total time  =        608 seconds =      10.13 minutes
Total time:
	user time   =     332.72 seconds =       5.55 minutes
	system time =     138.47 seconds =       2.31 minutes
	total time  =        608 seconds =      10.13 minutes
                                     G D M A

                                 by Anthony Stone

                           version 2.2.06, 22 June 2011

               Distributed Multipoles from Gaussian wavefunctions

Starting at 12:51:14 on 28 Apr 2020

Using SCF density matrix from file ./SSI/SSI-030TRP-213GLU-1-dimer.test.15286.fchk

                         Distributed Multipole Analysis

Standard DMA

Positions and radii in angstrom
Multipole moments in atomic units, ea_0^k for rank k

C          x = -0.025165  y = -2.720021  z = -1.249933 angstrom
           Maximum rank =  0   Radius =  0.650 angstrom
                   Q00  =  -0.219647

C          x =  0.658835  y = -1.399021  z = -0.931933 angstrom
           Maximum rank =  0   Radius =  0.650 angstrom
                   Q00  =  -0.141025

C          x =  1.376835  y = -1.064021  z =  0.201067 angstrom
           Maximum rank =  0   Radius =  0.650 angstrom
                   Q00  =   0.120563

C          x =  0.673835  y = -0.231021  z = -1.765933 angstrom
           Maximum rank =  0   Radius =  0.650 angstrom
                   Q00  =  -0.033760

C          x =  1.436835  y =  0.759979  z = -1.096933 angstrom
           Maximum rank =  0   Radius =  0.650 angstrom
                   Q00  =   0.249379

C          x =  0.141835  y =  0.072979  z = -3.035933 angstrom
           Maximum rank =  0   Radius =  0.650 angstrom
                   Q00  =  -0.108227

C          x =  1.631835  y =  2.025979  z = -1.632933 angstrom
           Maximum rank =  0   Radius =  0.650 angstrom
                   Q00  =  -0.113867

C          x =  0.346835  y =  1.340979  z = -3.570933 angstrom
           Maximum rank =  0   Radius =  0.650 angstrom
                   Q00  =  -0.070351

C          x =  1.088835  y =  2.299979  z = -2.887933 angstrom
           Maximum rank =  0   Radius =  0.650 angstrom
                   Q00  =  -0.038760

N          x =  1.841835  y =  0.227979  z =  0.100067 angstrom
           Maximum rank =  0   Radius =  0.650 angstrom
                   Q00  =  -0.498272

H          x = -0.361165  y = -2.665021  z = -2.284933 angstrom
           Maximum rank =  0   Radius =  0.325 angstrom
                   Q00  =   0.092508

H          x = -0.912165  y = -2.821021  z = -0.624933 angstrom
           Maximum rank =  0   Radius =  0.325 angstrom
                   Q00  =   0.118680

H          x =  1.542835  y = -1.706021  z =  1.058067 angstrom
           Maximum rank =  0   Radius =  0.325 angstrom
                   Q00  =   0.107966

H          x =  2.355835  y =  0.719979  z =  0.827067 angstrom
           Maximum rank =  0   Radius =  0.325 angstrom
                   Q00  =   0.232589

H          x = -0.431165  y = -0.666021  z = -3.577933 angstrom
           Maximum rank =  0   Radius =  0.325 angstrom
                   Q00  =   0.059685

H          x =  2.216835  y =  2.766979  z = -1.109933 angstrom
           Maximum rank =  0   Radius =  0.325 angstrom
                   Q00  =   0.069123

H          x = -0.066165  y =  1.579979  z = -4.542933 angstrom
           Maximum rank =  0   Radius =  0.325 angstrom
                   Q00  =   0.042294

H          x =  1.243835  y =  3.273979  z = -3.335933 angstrom
           Maximum rank =  0   Radius =  0.325 angstrom
                   Q00  =   0.048405

H          x =  0.629625  y = -3.597852  z = -1.146663 angstrom
           Maximum rank =  0   Radius =  0.325 angstrom
                   Q00  =   0.093812

C          x = -1.641165  y = -0.873021  z =  1.976067 angstrom
           Maximum rank =  0   Radius =  0.650 angstrom
                   Q00  =  -0.162783

C          x = -2.978165  y = -0.543021  z =  1.296067 angstrom
           Maximum rank =  0   Radius =  0.650 angstrom
                   Q00  =  -0.236479

C          x = -1.286165  y = -0.053021  z =  3.241067 angstrom
           Maximum rank =  0   Radius =  0.650 angstrom
                   Q00  =   1.008229

O          x = -1.948165  y =  0.979979  z =  3.509067 angstrom
           Maximum rank =  0   Radius =  0.650 angstrom
                   Q00  =  -0.949545

O          x = -0.344165  y = -0.438021  z =  4.003067 angstrom
           Maximum rank =  0   Radius =  0.650 angstrom
                   Q00  =  -0.950865

H          x = -1.569165  y = -1.936021  z =  2.126067 angstrom
           Maximum rank =  0   Radius =  0.325 angstrom
                   Q00  =   0.033908

H          x = -0.874165  y = -0.656021  z =  1.243067 angstrom
           Maximum rank =  0   Radius =  0.325 angstrom
                   Q00  =   0.066442

H          x = -3.734165  y = -0.317021  z =  2.048067 angstrom
           Maximum rank =  0   Radius =  0.325 angstrom
                   Q00  =   0.091000

H          x = -3.301165  y = -1.445021  z =  0.774067 angstrom
           Maximum rank =  0   Radius =  0.325 angstrom
                   Q00  =   0.018410

H          x = -2.917175  y =  0.263496  z =  0.550537 angstrom
           Maximum rank =  0   Radius =  0.325 angstrom
                   Q00  =   0.070589

Total multipoles referred to origin at
           x =   0.000000,  y =    0.000000,  z =    0.000000 angstrom
                   Q00  =  -1.000000

Finished at 12:51:14 on 28 Apr 2020

  DMA results are available in the Python driver through the
	  variable('DMA DISTRIBUTED MULTIPOLES')
  and
	  variable('DMA TOTAL MULTIPOLES')
  commands.

    Psi4 stopped on: Tuesday, 28 April 2020 12:51PM
    Psi4 wall time for execution: 0:10:07.87

*** Psi4 exiting successfully. Buy a developer a beer!
