                               Psi4 1.3.2 release

  ==> Input File <==

--------------------------------------------------------------------------
import numpy as np
set {scf_type pk
basis cc-pvdz
d_convergence 10
gdma_switch   0
gdma_limit    0
gdma_origin   [ 0.0,  0.0,  0.0 ]
}
molecule test {
    units Angstrom
    1 1
    --
    1 1
    C                0.190258501530713     0.930968966452728    -1.577254920670634
    C                1.658258501530713     0.549968966452728    -1.342254920670634
    N               -0.710741498469287    -0.145031033547272    -1.126254920670634
    H               -0.023741498469287     1.850968966452728    -1.021254920670635
    H                0.034258501530713     1.127968966452728    -2.644254920670635
    H                1.846258501530713    -0.438031033547272    -1.760254920670634
    H                1.834258501530713     0.508968966452728    -0.272254920670634
    H               -0.468741498469287    -0.444031033547272    -0.187254920670634
    H               -1.667741498469287     0.188968966452728    -1.061254920670634
    H               -0.654741498469287    -0.950031033547272    -1.748254920670634
    H                2.369888501530713     1.263058966452728    -1.783934920670634
    C               -0.906741498469287    -1.016031033547272     2.321745079329366
    O               -0.127741498469287    -0.179031033547272     1.498745079329366
    H                0.782258501530713    -0.055031033547272     1.878745079329366
    H               -0.348741498469287    -1.923031033547272     2.557745079329365
    H               -1.804741498469287    -1.297031033547272     1.770745079329366
    H               -1.209391498469287    -0.511851033547272     3.251375079329366

}
e, wfn = energy('scf', return_wfn=True)
gdma(wfn)
dmavals = variable('DMA DISTRIBUTED MULTIPOLES')
charges = np.array(dmavals)
print(charges)
np.save('SSI-226LYS-262SER-1-dimer.npy', np.array(charges))--------------------------------------------------------------------------

*** tstart() called on ds3
*** at Sun Apr 26 20:08:01 2020

   => Loading Basis Set <=

    Name: CC-PVDZ
    Role: ORBITAL
    Keyword: BASIS
    atoms 1-2, 12     entry C          line   138 file /theoryfs2/ds/metcalf/miniconda2/envs/tf2gpu/share/psi4/basis/cc-pvdz.gbs
    atoms 3           entry N          line   168 file /theoryfs2/ds/metcalf/miniconda2/envs/tf2gpu/share/psi4/basis/cc-pvdz.gbs
    atoms 4-11, 14-17 entry H          line    22 file /theoryfs2/ds/metcalf/miniconda2/envs/tf2gpu/share/psi4/basis/cc-pvdz.gbs
    atoms 13          entry O          line   198 file /theoryfs2/ds/metcalf/miniconda2/envs/tf2gpu/share/psi4/basis/cc-pvdz.gbs

         ---------------------------------------------------------
                                   SCF
               by Justin Turney, Rob Parrish, Andy Simmonett
                          and Daniel G. A. Smith
                              RHF Reference
                        1 Threads,    500 MiB Core
         ---------------------------------------------------------

  ==> Geometry <==

    Molecular point group: c1
    Full point group: C1

    Geometry (in Angstrom), charge = 1, multiplicity = 1:

       Center              X                  Y                   Z               Mass
    ------------   -----------------  -----------------  -----------------  -----------------
         C            0.190258501531     0.930968966453    -1.577254920671    12.000000000000
         C            1.658258501531     0.549968966453    -1.342254920671    12.000000000000
         N           -0.710741498469    -0.145031033547    -1.126254920671    14.003074004430
         H           -0.023741498469     1.850968966453    -1.021254920671     1.007825032230
         H            0.034258501531     1.127968966453    -2.644254920671     1.007825032230
         H            1.846258501531    -0.438031033547    -1.760254920671     1.007825032230
         H            1.834258501531     0.508968966453    -0.272254920671     1.007825032230
         H           -0.468741498469    -0.444031033547    -0.187254920671     1.007825032230
         H           -1.667741498469     0.188968966453    -1.061254920671     1.007825032230
         H           -0.654741498469    -0.950031033547    -1.748254920671     1.007825032230
         H            2.369888501531     1.263058966453    -1.783934920671     1.007825032230
         C           -0.906741498469    -1.016031033547     2.321745079329    12.000000000000
         O           -0.127741498469    -0.179031033547     1.498745079329    15.994914619570
         H            0.782258501531    -0.055031033547     1.878745079329     1.007825032230
         H           -0.348741498469    -1.923031033547     2.557745079329     1.007825032230
         H           -1.804741498469    -1.297031033547     1.770745079329     1.007825032230
         H           -1.209391498469    -0.511851033547     3.251375079329     1.007825032230

  Running in c1 symmetry.

  Rotational constants: A =      0.26405  B =      0.06155  C =      0.05381 [cm^-1]
  Rotational constants: A =   7916.08059  B =   1845.16061  C =   1613.29566 [MHz]
  Nuclear repulsion =  202.163771817405461

  Charge       = 1
  Multiplicity = 1
  Electrons    = 44
  Nalpha       = 22
  Nbeta        = 22

  ==> Algorithm <==

  SCF Algorithm Type is PK.
  DIIS enabled.
  MOM disabled.
  Fractional occupation disabled.
  Guess Type is SAD.
  Energy threshold   = 1.00e-06
  Density threshold  = 1.00e-10
  Integral threshold = 0.00e+00

  ==> Primary Basis <==

  Basis Set: CC-PVDZ
    Blend: CC-PVDZ
    Number of shells: 66
    Number of basis function: 130
    Number of Cartesian functions: 135
    Spherical Harmonics?: true
    Max angular momentum: 2

  ==> Pre-Iterations <==

   -------------------------------------------------------
    Irrep   Nso     Nmo     Nalpha   Nbeta   Ndocc  Nsocc
   -------------------------------------------------------
     A        130     130       0       0       0       0
   -------------------------------------------------------
    Total     130     130      22      22      22       0
   -------------------------------------------------------

  ==> Integral Setup <==

  Using integral reordering PK algorithm.
  Sizing the integral batches needed.
  Building batch lookup table.
   Calculation information:
      Number of atoms:                  17
      Number of AO shells:              66
      Number of primitives:            170
      Number of atomic orbitals:       135
      Number of basis functions:       130

      Integral cutoff                 1.00e-12
      Number of threads:                 1

	Batch   1 pq = [       0,    8515] index = [             0,36256870] size =     36256870
  Task number: 4
  Buffer size: 11059200
  Buffer per thread: 2
  We computed 2251016 shell quartets total.
  Whereas there are 2445366 unique shell quartets.

  ==> DiskJK: Disk-Based J/K Matrices <==

    J tasked:                  Yes
    K tasked:                  Yes
    wK tasked:                  No
    Memory [MiB]:              375
    Schwarz Cutoff:          1E-12

    OpenMP threads:              1

  Minimum eigenvalue in the overlap matrix is 5.6673562043E-03.
  Using Symmetric Orthogonalization.

  SCF Guess: Superposition of Atomic Densities via on-the-fly atomic UHF.

  ==> Iterations <==

                        Total Energy        Delta E     RMS |[F,P]|

   @RHF iter SAD:  -249.02558261540037   -2.49026e+02   0.00000e+00
   @RHF iter   1:  -249.56073762419200   -5.35155e-01   3.63247e-03 DIIS
   @RHF iter   2:  -249.68347488045822   -1.22737e-01   1.46104e-03 DIIS
   @RHF iter   3:  -249.69986660048906   -1.63917e-02   4.37276e-04 DIIS
   @RHF iter   4:  -249.70192529958274   -2.05870e-03   1.06979e-04 DIIS
   @RHF iter   5:  -249.70203433952253   -1.09040e-04   2.62274e-05 DIIS
   @RHF iter   6:  -249.70204380671260   -9.46719e-06   5.38194e-06 DIIS
   @RHF iter   7:  -249.70204438556715   -5.78855e-07   1.46491e-06 DIIS
   @RHF iter   8:  -249.70204442891549   -4.33483e-08   4.63958e-07 DIIS
   @RHF iter   9:  -249.70204443216818   -3.25269e-09   9.45166e-08 DIIS
   @RHF iter  10:  -249.70204443231512   -1.46940e-10   2.20265e-08 DIIS
   @RHF iter  11:  -249.70204443232331   -8.18545e-12   6.91778e-09 DIIS
   @RHF iter  12:  -249.70204443232325    5.68434e-14   1.93154e-09 DIIS
   @RHF iter  13:  -249.70204443232393   -6.82121e-13   5.15978e-10 DIIS
   @RHF iter  14:  -249.70204443232393    0.00000e+00   1.48828e-10 DIIS
   @RHF iter  15:  -249.70204443232393    0.00000e+00   4.97155e-11 DIIS
  Energy and wave function converged.

  ==> Post-Iterations <==

    Orbital Energies [Eh]
    ---------------------

    Doubly Occupied:

       1A    -20.734998     2A    -15.865726     3A    -11.462812
       4A    -11.424817     5A    -11.394101     6A     -1.531697
       7A     -1.494262     8A     -1.199710     9A     -1.076814
      10A     -1.041508    11A     -0.960768    12A     -0.939829
      13A     -0.855253    14A     -0.834709    15A     -0.782198
      16A     -0.774099    17A     -0.760369    18A     -0.710323
      19A     -0.684107    20A     -0.674955    21A     -0.656987
      22A     -0.610409

    Virtual:

      23A     -0.023839    24A      0.026459    25A      0.029854
      26A      0.044770    27A      0.084787    28A      0.092257
      29A      0.102737    30A      0.125206    31A      0.133289
      32A      0.142343    33A      0.149684    34A      0.183929
      35A      0.193054    36A      0.211762    37A      0.257274
      38A      0.394518    39A      0.418255    40A      0.438113
      41A      0.445359    42A      0.452539    43A      0.487891
      44A      0.512439    45A      0.588085    46A      0.616030
      47A      0.641258    48A      0.657007    49A      0.670078
      50A      0.689716    51A      0.700529    52A      0.713222
      53A      0.725873    54A      0.728580    55A      0.747758
      56A      0.751209    57A      0.776526    58A      0.792779
      59A      0.802451    60A      0.846619    61A      0.881041
      62A      0.929584    63A      0.958401    64A      0.995740
      65A      1.003047    66A      1.052972    67A      1.092757
      68A      1.146770    69A      1.208276    70A      1.232125
      71A      1.277501    72A      1.303950    73A      1.349188
      74A      1.421152    75A      1.467684    76A      1.493631
      77A      1.509350    78A      1.527677    79A      1.531724
      80A      1.600927    81A      1.662560    82A      1.676854
      83A      1.710015    84A      1.712989    85A      1.738031
      86A      1.748121    87A      1.772691    88A      1.779045
      89A      1.787478    90A      1.793832    91A      1.801141
      92A      1.816059    93A      1.837959    94A      1.849512
      95A      1.907062    96A      1.915265    97A      1.941001
      98A      1.976808    99A      2.047666   100A      2.057285
     101A      2.097474   102A      2.129037   103A      2.142832
     104A      2.185741   105A      2.203579   106A      2.227626
     107A      2.232110   108A      2.320792   109A      2.336084
     110A      2.392153   111A      2.403374   112A      2.480511
     113A      2.552685   114A      2.577983   115A      2.609087
     116A      2.614904   117A      2.624521   118A      2.635086
     119A      2.652166   120A      2.701144   121A      2.781860
     122A      2.834081   123A      2.864331   124A      3.056758
     125A      3.139858   126A      3.217068   127A      3.245466
     128A      3.304980   129A      3.436135   130A      3.893435

    Final Occupation by Irrep:
              A
    DOCC [    22 ]

  @RHF Final Energy:  -249.70204443232393

   => Energetics <=

    Nuclear Repulsion Energy =            202.1637718174054612
    One-Electron Energy =                -730.7907316822709163
    Two-Electron Energy =                 278.9249154325415816
    Total Energy =                       -249.7020444323239303

Computation Completed

Properties will be evaluated at   0.000000,   0.000000,   0.000000 [a0]

Properties computed using the SCF density matrix

  Nuclear Dipole Moment: [e a0]
     X:     0.6474      Y:    -0.6371      Z:    -0.9458

  Electronic Dipole Moment: [e a0]
     X:    -1.2192      Y:     0.2928      Z:    -0.0380

  Dipole Moment: [e a0]
     X:    -0.5718      Y:    -0.3443      Z:    -0.9838     Total:     1.1888

  Dipole Moment: [D]
     X:    -1.4533      Y:    -0.8751      Z:    -2.5006     Total:     3.0217

*** tstop() called on ds3 at Sun Apr 26 20:08:20 2020
Module time:
	user time   =      13.65 seconds =       0.23 minutes
	system time =       5.26 seconds =       0.09 minutes
	total time  =         19 seconds =       0.32 minutes
Total time:
	user time   =      13.65 seconds =       0.23 minutes
	system time =       5.26 seconds =       0.09 minutes
	total time  =         19 seconds =       0.32 minutes
                                     G D M A

                                 by Anthony Stone

                           version 2.2.06, 22 June 2011

               Distributed Multipoles from Gaussian wavefunctions

Starting at 20:8:20 on 26 Apr 2020

Using SCF density matrix from file ./SSI/SSI-226LYS-262SER-1-dimer.test.12100.fchk

                         Distributed Multipole Analysis

Standard DMA

Positions and radii in angstrom
Multipole moments in atomic units, ea_0^k for rank k

C          x =  0.190259  y =  0.930969  z = -1.577255 angstrom
           Maximum rank =  0   Radius =  0.650 angstrom
                   Q00  =  -0.030885

C          x =  1.658259  y =  0.549969  z = -1.342255 angstrom
           Maximum rank =  0   Radius =  0.650 angstrom
                   Q00  =  -0.234510

N          x = -0.710741  y = -0.145031  z = -1.126255 angstrom
           Maximum rank =  0   Radius =  0.650 angstrom
                   Q00  =  -0.150904

H          x = -0.023741  y =  1.850969  z = -1.021255 angstrom
           Maximum rank =  0   Radius =  0.325 angstrom
                   Q00  =   0.129291

H          x =  0.034259  y =  1.127969  z = -2.644255 angstrom
           Maximum rank =  0   Radius =  0.325 angstrom
                   Q00  =   0.120243

H          x =  1.846259  y = -0.438031  z = -1.760255 angstrom
           Maximum rank =  0   Radius =  0.325 angstrom
                   Q00  =   0.094843

H          x =  1.834259  y =  0.508969  z = -0.272255 angstrom
           Maximum rank =  0   Radius =  0.325 angstrom
                   Q00  =   0.096962

H          x = -0.468741  y = -0.444031  z = -0.187255 angstrom
           Maximum rank =  0   Radius =  0.325 angstrom
                   Q00  =   0.287012

H          x = -1.667741  y =  0.188969  z = -1.061255 angstrom
           Maximum rank =  0   Radius =  0.325 angstrom
                   Q00  =   0.245185

H          x = -0.654742  y = -0.950031  z = -1.748255 angstrom
           Maximum rank =  0   Radius =  0.325 angstrom
                   Q00  =   0.241037

H          x =  2.369889  y =  1.263059  z = -1.783935 angstrom
           Maximum rank =  0   Radius =  0.325 angstrom
                   Q00  =   0.150016

C          x = -0.906741  y = -1.016031  z =  2.321745 angstrom
           Maximum rank =  0   Radius =  0.650 angstrom
                   Q00  =  -0.071359

O          x = -0.127741  y = -0.179031  z =  1.498745 angstrom
           Maximum rank =  0   Radius =  0.650 angstrom
                   Q00  =  -0.656972

H          x =  0.782259  y = -0.055031  z =  1.878745 angstrom
           Maximum rank =  0   Radius =  0.325 angstrom
                   Q00  =   0.448132

H          x = -0.348741  y = -1.923031  z =  2.557745 angstrom
           Maximum rank =  0   Radius =  0.325 angstrom
                   Q00  =   0.101219

H          x = -1.804741  y = -1.297031  z =  1.770745 angstrom
           Maximum rank =  0   Radius =  0.325 angstrom
                   Q00  =   0.104689

H          x = -1.209391  y = -0.511851  z =  3.251375 angstrom
           Maximum rank =  0   Radius =  0.325 angstrom
                   Q00  =   0.126002

Total multipoles referred to origin at
           x =   0.000000,  y =    0.000000,  z =    0.000000 angstrom
                   Q00  =   1.000000

Finished at 20:8:20 on 26 Apr 2020

  DMA results are available in the Python driver through the
	  variable('DMA DISTRIBUTED MULTIPOLES')
  and
	  variable('DMA TOTAL MULTIPOLES')
  commands.

    Psi4 stopped on: Sunday, 26 April 2020 08:08PM
    Psi4 wall time for execution: 0:00:18.78

*** Psi4 exiting successfully. Buy a developer a beer!
