                               Psi4 1.3.2 release

  ==> Input File <==

--------------------------------------------------------------------------
import numpy as np
set {scf_type pk
basis cc-pvdz
d_convergence 10
gdma_switch   0
gdma_limit    0
gdma_origin   [ 0.0,  0.0,  0.0 ]
}
molecule test {
    units Angstrom
    0 1
    --
    0 1
    C                0.899957553478596    -1.048596571291939    -1.439896087891458
    C                0.907957553478596     0.441403428708061    -1.871896087891458
    H                1.132957553478596    -1.698596571291939    -2.282896087891458
    H                1.631957553478596    -1.224596571291939    -0.652896087891458
    H               -0.072042446521404    -1.305596571291939    -1.036896087891458
    H                0.476957553478596     1.041403428708061    -1.070896087891458
    H                0.299617553478596     0.580653428708061    -2.777726087891458
    H                1.936987553478596     0.781303428708061    -2.060491087891458
    C               -0.125042446521404     0.216403428708061     1.722103912108542
    C               -1.677042446521404     0.400403428708061     1.590103912108542
    H                0.138957553478596     0.182403428708061     2.770103912108542
    H                0.161957553478596    -0.726596571291939     1.265103912108542
    H                0.408957553478596     1.030403428708061     1.235103912108542
    H               -2.167042446521404    -0.404596571291939     2.139103912108542
    H               -1.943042446521404     0.260403428708061     0.541103912108542
    H               -2.075642446521405     1.368943428708061     1.926332912108542

}
e, wfn = energy('scf', return_wfn=True)
gdma(wfn)
dmavals = variable('DMA DISTRIBUTED MULTIPOLES')
charges = np.array(dmavals)
print(charges)
np.save('SSI-077ILE-112ILE-1-dimer.npy', np.array(charges))--------------------------------------------------------------------------

*** tstart() called on ds3
*** at Sun Apr 26 20:07:48 2020

   => Loading Basis Set <=

    Name: CC-PVDZ
    Role: ORBITAL
    Keyword: BASIS
    atoms 1-2, 9-10  entry C          line   138 file /theoryfs2/ds/metcalf/miniconda2/envs/tf2gpu/share/psi4/basis/cc-pvdz.gbs
    atoms 3-8, 11-16 entry H          line    22 file /theoryfs2/ds/metcalf/miniconda2/envs/tf2gpu/share/psi4/basis/cc-pvdz.gbs

         ---------------------------------------------------------
                                   SCF
               by Justin Turney, Rob Parrish, Andy Simmonett
                          and Daniel G. A. Smith
                              RHF Reference
                        1 Threads,    500 MiB Core
         ---------------------------------------------------------

  ==> Geometry <==

    Molecular point group: c1
    Full point group: C1

    Geometry (in Angstrom), charge = 0, multiplicity = 1:

       Center              X                  Y                   Z               Mass
    ------------   -----------------  -----------------  -----------------  -----------------
         C            0.899957553479    -1.048596571292    -1.439896087891    12.000000000000
         C            0.907957553479     0.441403428708    -1.871896087891    12.000000000000
         H            1.132957553479    -1.698596571292    -2.282896087891     1.007825032230
         H            1.631957553479    -1.224596571292    -0.652896087891     1.007825032230
         H           -0.072042446521    -1.305596571292    -1.036896087891     1.007825032230
         H            0.476957553479     1.041403428708    -1.070896087891     1.007825032230
         H            0.299617553479     0.580653428708    -2.777726087891     1.007825032230
         H            1.936987553479     0.781303428708    -2.060491087891     1.007825032230
         C           -0.125042446521     0.216403428708     1.722103912109    12.000000000000
         C           -1.677042446521     0.400403428708     1.590103912109    12.000000000000
         H            0.138957553479     0.182403428708     2.770103912109     1.007825032230
         H            0.161957553479    -0.726596571292     1.265103912109     1.007825032230
         H            0.408957553479     1.030403428708     1.235103912109     1.007825032230
         H           -2.167042446521    -0.404596571292     2.139103912109     1.007825032230
         H           -1.943042446521     0.260403428708     0.541103912109     1.007825032230
         H           -2.075642446521     1.368943428708     1.926332912109     1.007825032230

  Running in c1 symmetry.

  Rotational constants: A =      0.35167  B =      0.06759  C =      0.06565 [cm^-1]
  Rotational constants: A =  10542.79604  B =   2026.37885  C =   1968.23657 [MHz]
  Nuclear repulsion =  127.214671246919409

  Charge       = 0
  Multiplicity = 1
  Electrons    = 36
  Nalpha       = 18
  Nbeta        = 18

  ==> Algorithm <==

  SCF Algorithm Type is PK.
  DIIS enabled.
  MOM disabled.
  Fractional occupation disabled.
  Guess Type is SAD.
  Energy threshold   = 1.00e-06
  Density threshold  = 1.00e-10
  Integral threshold = 0.00e+00

  ==> Primary Basis <==

  Basis Set: CC-PVDZ
    Blend: CC-PVDZ
    Number of shells: 60
    Number of basis function: 116
    Number of Cartesian functions: 120
    Spherical Harmonics?: true
    Max angular momentum: 2

  ==> Pre-Iterations <==

   -------------------------------------------------------
    Irrep   Nso     Nmo     Nalpha   Nbeta   Ndocc  Nsocc
   -------------------------------------------------------
     A        116     116       0       0       0       0
   -------------------------------------------------------
    Total     116     116      18      18      18       0
   -------------------------------------------------------

  ==> Integral Setup <==

  Using integral reordering PK algorithm.
  Sizing the integral batches needed.
  Building batch lookup table.
   Calculation information:
      Number of atoms:                  16
      Number of AO shells:              60
      Number of primitives:            148
      Number of atomic orbitals:       120
      Number of basis functions:       116

      Integral cutoff                 1.00e-12
      Number of threads:                 1

	Batch   1 pq = [       0,    6786] index = [             0,23028291] size =     23028291
  Task number: 3
  Buffer size: 11059200
  Buffer per thread: 2
  We computed 1624062 shell quartets total.
  Whereas there are 1675365 unique shell quartets.

  ==> DiskJK: Disk-Based J/K Matrices <==

    J tasked:                  Yes
    K tasked:                  Yes
    wK tasked:                  No
    Memory [MiB]:              375
    Schwarz Cutoff:          1E-12

    OpenMP threads:              1

  Minimum eigenvalue in the overlap matrix is 8.1259630352E-03.
  Using Symmetric Orthogonalization.

  SCF Guess: Superposition of Atomic Densities via on-the-fly atomic UHF.

  ==> Iterations <==

                        Total Energy        Delta E     RMS |[F,P]|

   @RHF iter SAD:  -157.29381894328350   -1.57294e+02   0.00000e+00
   @RHF iter   1:  -158.31007862087782   -1.01626e+00   4.11457e-03 DIIS
   @RHF iter   2:  -158.43943245529334   -1.29354e-01   1.72562e-03 DIIS
   @RHF iter   3:  -158.46122930273981   -2.17968e-02   3.46092e-04 DIIS
   @RHF iter   4:  -158.46301703236620   -1.78773e-03   3.87357e-05 DIIS
   @RHF iter   5:  -158.46304040028730   -2.33679e-05   6.71268e-06 DIIS
   @RHF iter   6:  -158.46304106086967   -6.60582e-07   1.14155e-06 DIIS
   @RHF iter   7:  -158.46304107454006   -1.36704e-08   3.30122e-07 DIIS
   @RHF iter   8:  -158.46304107556733   -1.02727e-09   5.06883e-08 DIIS
   @RHF iter   9:  -158.46304107560314   -3.58114e-11   1.26230e-08 DIIS
   @RHF iter  10:  -158.46304107560610   -2.95586e-12   2.83067e-09 DIIS
   @RHF iter  11:  -158.46304107560601    8.52651e-14   7.15992e-10 DIIS
   @RHF iter  12:  -158.46304107560616   -1.42109e-13   2.38902e-10 DIIS
   @RHF iter  13:  -158.46304107560567    4.83169e-13   3.46591e-11 DIIS
  Energy and wave function converged.

  ==> Post-Iterations <==

    Orbital Energies [Eh]
    ---------------------

    Doubly Occupied:

       1A    -11.221578     2A    -11.220931     3A    -11.218669
       4A    -11.217933     5A     -1.015154     6A     -1.008129
       7A     -0.843608     8A     -0.840190     9A     -0.608096
      10A     -0.595454    11A     -0.593687    12A     -0.583257
      13A     -0.502764    14A     -0.496195    15A     -0.492828
      16A     -0.487205    17A     -0.485878    18A     -0.482008

    Virtual:

      19A      0.170634    20A      0.206859    21A      0.226020
      22A      0.227983    23A      0.251269    24A      0.258084
      25A      0.262318    26A      0.276923    27A      0.285449
      28A      0.311408    29A      0.327318    30A      0.349976
      31A      0.380521    32A      0.400347    33A      0.562025
      34A      0.586293    35A      0.593081    36A      0.611532
      37A      0.621695    38A      0.643467    39A      0.683468
      40A      0.704212    41A      0.714891    42A      0.820499
      43A      0.821737    44A      0.839058    45A      0.874781
      46A      0.883834    47A      0.888988    48A      0.897233
      49A      0.912029    50A      0.915157    51A      0.928064
      52A      0.938779    53A      0.945983    54A      0.984431
      55A      0.986647    56A      1.011519    57A      1.121618
      58A      1.123290    59A      1.141017    60A      1.153447
      61A      1.231465    62A      1.262973    63A      1.438613
      64A      1.466404    65A      1.469884    66A      1.487106
      67A      1.544565    68A      1.605611    69A      1.684002
      70A      1.694786    71A      1.698783    72A      1.727094
      73A      1.845228    74A      1.866127    75A      1.872870
      76A      1.877698    77A      1.886123    78A      1.921305
      79A      1.930004    80A      1.933372    81A      1.939917
      82A      1.941476    83A      1.944769    84A      1.949410
      85A      1.962511    86A      1.972601    87A      1.989731
      88A      2.036511    89A      2.080676    90A      2.116225
      91A      2.122392    92A      2.162919    93A      2.288536
      94A      2.300022    95A      2.318315    96A      2.324319
      97A      2.438556    98A      2.445626    99A      2.456094
     100A      2.473824   101A      2.549637   102A      2.574010
     103A      2.578440   104A      2.590978   105A      2.761588
     106A      2.772038   107A      2.796547   108A      2.807737
     109A      2.840183   110A      2.848401   111A      2.870946
     112A      2.876608   113A      2.930452   114A      2.948054
     115A      2.969592   116A      2.996733

    Final Occupation by Irrep:
              A
    DOCC [    18 ]

  @RHF Final Energy:  -158.46304107560567

   => Energetics <=

    Nuclear Repulsion Energy =            127.2146712469194085
    One-Electron Energy =                -463.5282966068376140
    Two-Electron Energy =                 177.8505842843125322
    Total Energy =                       -158.4630410756056733

Computation Completed

Properties will be evaluated at   0.000000,   0.000000,   0.000000 [a0]

Properties computed using the SCF density matrix

  Nuclear Dipole Moment: [e a0]
     X:    -0.0651      Y:    -0.1073      Z:    -0.0046

  Electronic Dipole Moment: [e a0]
     X:     0.0708      Y:     0.0857      Z:     0.0123

  Dipole Moment: [e a0]
     X:     0.0058      Y:    -0.0217      Z:     0.0076     Total:     0.0237

  Dipole Moment: [D]
     X:     0.0147      Y:    -0.0551      Z:     0.0194     Total:     0.0602

*** tstop() called on ds3 at Sun Apr 26 20:07:59 2020
Module time:
	user time   =       8.85 seconds =       0.15 minutes
	system time =       2.96 seconds =       0.05 minutes
	total time  =         11 seconds =       0.18 minutes
Total time:
	user time   =       8.85 seconds =       0.15 minutes
	system time =       2.96 seconds =       0.05 minutes
	total time  =         11 seconds =       0.18 minutes
                                     G D M A

                                 by Anthony Stone

                           version 2.2.06, 22 June 2011

               Distributed Multipoles from Gaussian wavefunctions

Starting at 20:7:59 on 26 Apr 2020

Using SCF density matrix from file ./SSI/SSI-077ILE-112ILE-1-dimer.test.12055.fchk

                         Distributed Multipole Analysis

Standard DMA

Positions and radii in angstrom
Multipole moments in atomic units, ea_0^k for rank k

C          x =  0.899958  y = -1.048597  z = -1.439896 angstrom
           Maximum rank =  0   Radius =  0.650 angstrom
                   Q00  =  -0.237219

C          x =  0.907958  y =  0.441403  z = -1.871896 angstrom
           Maximum rank =  0   Radius =  0.650 angstrom
                   Q00  =  -0.251598

H          x =  1.132958  y = -1.698597  z = -2.282896 angstrom
           Maximum rank =  0   Radius =  0.325 angstrom
                   Q00  =   0.082298

H          x =  1.631958  y = -1.224597  z = -0.652896 angstrom
           Maximum rank =  0   Radius =  0.325 angstrom
                   Q00  =   0.081056

H          x = -0.072042  y = -1.305597  z = -1.036896 angstrom
           Maximum rank =  0   Radius =  0.325 angstrom
                   Q00  =   0.079303

H          x =  0.476958  y =  1.041403  z = -1.070896 angstrom
           Maximum rank =  0   Radius =  0.325 angstrom
                   Q00  =   0.084167

H          x =  0.299618  y =  0.580653  z = -2.777726 angstrom
           Maximum rank =  0   Radius =  0.325 angstrom
                   Q00  =   0.080505

H          x =  1.936988  y =  0.781303  z = -2.060491 angstrom
           Maximum rank =  0   Radius =  0.325 angstrom
                   Q00  =   0.081292

C          x = -0.125042  y =  0.216403  z =  1.722104 angstrom
           Maximum rank =  0   Radius =  0.650 angstrom
                   Q00  =  -0.241268

C          x = -1.677042  y =  0.400403  z =  1.590104 angstrom
           Maximum rank =  0   Radius =  0.650 angstrom
                   Q00  =  -0.257322

H          x =  0.138958  y =  0.182403  z =  2.770104 angstrom
           Maximum rank =  0   Radius =  0.325 angstrom
                   Q00  =   0.082804

H          x =  0.161958  y = -0.726597  z =  1.265104 angstrom
           Maximum rank =  0   Radius =  0.325 angstrom
                   Q00  =   0.086904

H          x =  0.408958  y =  1.030403  z =  1.235104 angstrom
           Maximum rank =  0   Radius =  0.325 angstrom
                   Q00  =   0.082846

H          x = -2.167042  y = -0.404597  z =  2.139104 angstrom
           Maximum rank =  0   Radius =  0.325 angstrom
                   Q00  =   0.081506

H          x = -1.943042  y =  0.260403  z =  0.541104 angstrom
           Maximum rank =  0   Radius =  0.325 angstrom
                   Q00  =   0.076981

H          x = -2.075642  y =  1.368943  z =  1.926333 angstrom
           Maximum rank =  0   Radius =  0.325 angstrom
                   Q00  =   0.087744

Total multipoles referred to origin at
           x =   0.000000,  y =    0.000000,  z =    0.000000 angstrom
                   Q00  =  -0.000000

Finished at 20:7:59 on 26 Apr 2020

  DMA results are available in the Python driver through the
	  variable('DMA DISTRIBUTED MULTIPOLES')
  and
	  variable('DMA TOTAL MULTIPOLES')
  commands.

    Psi4 stopped on: Sunday, 26 April 2020 08:07PM
    Psi4 wall time for execution: 0:00:11.75

*** Psi4 exiting successfully. Buy a developer a beer!
