                               Psi4 1.3.2 release

  ==> Input File <==

--------------------------------------------------------------------------
import numpy as np
set {scf_type pk
basis cc-pvdz
d_convergence 10
gdma_switch   0
gdma_limit    0
gdma_origin   [ 0.0,  0.0,  0.0 ]
}
molecule test {
    units Angstrom
    0 1
    --
    0 1
    C                0.023603380506318     1.517705748967322    -0.171009907531793
    C                1.199603380506318     1.913705748967321     0.730990092468207
    C               -1.372396619493682     1.929705748967322     0.314990092468207
    H                0.194603380506318     1.973705748967322    -1.141009907531793
    H                0.030603380506318     0.440705748967322    -0.315009907531793
    H                0.944603380506318     1.681705748967322     1.762990092468207
    H               -1.416396619493682     3.016705748967321     0.386990092468207
    H                1.394382380506318     2.994385748967321     0.666310092468206
    H                2.081789380506318     1.293735748967322     0.513320092468207
    H               -2.137800619493682     1.606105748967321    -0.405729907531793
    H               -1.588441619493682     1.519215748967322     1.312400092468206
    C               -0.287396619493682    -2.291294251032679     0.134990092468207
    C                0.438603380506318    -2.963294251032679    -1.019009907531794
    H               -0.500396619493682    -3.077294251032679     0.840990092468207
    H                0.340603380506318    -1.537294251032678     0.605990092468207
    H               -1.220396619493682    -1.848294251032679    -0.215009907531793
    H                0.449603380506318    -2.275294251032679    -1.858009907531794
    H               -0.081961859493682    -3.890974251032678    -1.299039907531793
    H                1.485190380506318    -3.165534251032679    -0.747429907531794

}
e, wfn = energy('scf', return_wfn=True)
gdma(wfn)
dmavals = variable('DMA DISTRIBUTED MULTIPOLES')
charges = np.array(dmavals)
print(charges)
np.save('SSI-022LEU-065LEU-1-dimer.npy', np.array(charges))--------------------------------------------------------------------------

*** tstart() called on ds3
*** at Sun Apr 26 18:00:57 2020

   => Loading Basis Set <=

    Name: CC-PVDZ
    Role: ORBITAL
    Keyword: BASIS
    atoms 1-3, 12-13  entry C          line   138 file /theoryfs2/ds/metcalf/miniconda2/envs/tf2gpu/share/psi4/basis/cc-pvdz.gbs
    atoms 4-11, 14-19 entry H          line    22 file /theoryfs2/ds/metcalf/miniconda2/envs/tf2gpu/share/psi4/basis/cc-pvdz.gbs

         ---------------------------------------------------------
                                   SCF
               by Justin Turney, Rob Parrish, Andy Simmonett
                          and Daniel G. A. Smith
                              RHF Reference
                        1 Threads,    500 MiB Core
         ---------------------------------------------------------

  ==> Geometry <==

    Molecular point group: c1
    Full point group: C1

    Geometry (in Angstrom), charge = 0, multiplicity = 1:

       Center              X                  Y                   Z               Mass
    ------------   -----------------  -----------------  -----------------  -----------------
         C            0.023603380506     1.517705748967    -0.171009907532    12.000000000000
         C            1.199603380506     1.913705748967     0.730990092468    12.000000000000
         C           -1.372396619494     1.929705748967     0.314990092468    12.000000000000
         H            0.194603380506     1.973705748967    -1.141009907532     1.007825032230
         H            0.030603380506     0.440705748967    -0.315009907532     1.007825032230
         H            0.944603380506     1.681705748967     1.762990092468     1.007825032230
         H           -1.416396619494     3.016705748967     0.386990092468     1.007825032230
         H            1.394382380506     2.994385748967     0.666310092468     1.007825032230
         H            2.081789380506     1.293735748967     0.513320092468     1.007825032230
         H           -2.137800619494     1.606105748967    -0.405729907532     1.007825032230
         H           -1.588441619494     1.519215748967     1.312400092468     1.007825032230
         C           -0.287396619494    -2.291294251033     0.134990092468    12.000000000000
         C            0.438603380506    -2.963294251033    -1.019009907532    12.000000000000
         H           -0.500396619494    -3.077294251033     0.840990092468     1.007825032230
         H            0.340603380506    -1.537294251033     0.605990092468     1.007825032230
         H           -1.220396619494    -1.848294251033    -0.215009907532     1.007825032230
         H            0.449603380506    -2.275294251033    -1.858009907532     1.007825032230
         H           -0.081961859494    -3.890974251033    -1.299039907532     1.007825032230
         H            1.485190380506    -3.165534251033    -0.747429907532     1.007825032230

  Running in c1 symmetry.

  Rotational constants: A =      0.19943  B =      0.04238  C =      0.03832 [cm^-1]
  Rotational constants: A =   5978.72784  B =   1270.51373  C =   1148.77980 [MHz]
  Nuclear repulsion =  178.356563007692927

  Charge       = 0
  Multiplicity = 1
  Electrons    = 44
  Nalpha       = 22
  Nbeta        = 22

  ==> Algorithm <==

  SCF Algorithm Type is PK.
  DIIS enabled.
  MOM disabled.
  Fractional occupation disabled.
  Guess Type is SAD.
  Energy threshold   = 1.00e-06
  Density threshold  = 1.00e-10
  Integral threshold = 0.00e+00

  ==> Primary Basis <==

  Basis Set: CC-PVDZ
    Blend: CC-PVDZ
    Number of shells: 72
    Number of basis function: 140
    Number of Cartesian functions: 145
    Spherical Harmonics?: true
    Max angular momentum: 2

  ==> Pre-Iterations <==

   -------------------------------------------------------
    Irrep   Nso     Nmo     Nalpha   Nbeta   Ndocc  Nsocc
   -------------------------------------------------------
     A        140     140       0       0       0       0
   -------------------------------------------------------
    Total     140     140      22      22      22       0
   -------------------------------------------------------

  ==> Integral Setup <==

  Using integral reordering PK algorithm.
  Sizing the integral batches needed.
  Building batch lookup table.
   Calculation information:
      Number of atoms:                  19
      Number of AO shells:              72
      Number of primitives:            180
      Number of atomic orbitals:       145
      Number of basis functions:       140

      Integral cutoff                 1.00e-12
      Number of threads:                 1

	Batch   1 pq = [       0,    9405] index = [             0,44231715] size =     44231715
	Batch   2 pq = [    9405,    9870] index = [      44231715,48713385] size =      4481670
  Task number: 5
  Buffer size: 11059200
  Buffer per thread: 2
  We computed 2907673 shell quartets total.
  Whereas there are 3454506 unique shell quartets.

  ==> DiskJK: Disk-Based J/K Matrices <==

    J tasked:                  Yes
    K tasked:                  Yes
    wK tasked:                  No
    Memory [MiB]:              375
    Schwarz Cutoff:          1E-12

    OpenMP threads:              1

  Minimum eigenvalue in the overlap matrix is 5.6678039222E-03.
  Using Symmetric Orthogonalization.

  SCF Guess: Superposition of Atomic Densities via on-the-fly atomic UHF.

  ==> Iterations <==

                        Total Energy        Delta E     RMS |[F,P]|

   @RHF iter SAD:  -196.36517192409880   -1.96365e+02   0.00000e+00
   @RHF iter   1:  -197.30848675813888   -9.43315e-01   3.79665e-03 DIIS
   @RHF iter   2:  -197.46847086243093   -1.59984e-01   1.62453e-03 DIIS
   @RHF iter   3:  -197.49639896582187   -2.79281e-02   3.24023e-04 DIIS
   @RHF iter   4:  -197.49861214944238   -2.21318e-03   4.83191e-05 DIIS
   @RHF iter   5:  -197.49865069889910   -3.85495e-05   1.49812e-05 DIIS
   @RHF iter   6:  -197.49865412447571   -3.42558e-06   2.33359e-06 DIIS
   @RHF iter   7:  -197.49865422789347   -1.03418e-07   4.62019e-07 DIIS
   @RHF iter   8:  -197.49865423230105   -4.40758e-09   1.27629e-07 DIIS
   @RHF iter   9:  -197.49865423262051   -3.19460e-10   3.81708e-08 DIIS
   @RHF iter  10:  -197.49865423265507   -3.45608e-11   7.99973e-09 DIIS
   @RHF iter  11:  -197.49865423265601   -9.37916e-13   1.52419e-09 DIIS
   @RHF iter  12:  -197.49865423265581    1.98952e-13   2.92979e-10 DIIS
   @RHF iter  13:  -197.49865423265658   -7.67386e-13   5.36281e-11 DIIS
  Energy and wave function converged.

  ==> Post-Iterations <==

    Orbital Energies [Eh]
    ---------------------

    Doubly Occupied:

       1A    -11.218340     2A    -11.217999     3A    -11.217967
       4A    -11.217472     5A    -11.215036     6A     -1.049792
       7A     -1.023227     8A     -0.925104     9A     -0.836084
      10A     -0.796656    11A     -0.626887    12A     -0.603714
      13A     -0.601064    14A     -0.590696    15A     -0.548824
      16A     -0.533136    17A     -0.501392    18A     -0.489660
      19A     -0.483016    20A     -0.473694    21A     -0.465060
      22A     -0.463491

    Virtual:

      23A      0.166550    24A      0.194336    25A      0.209549
      26A      0.229408    27A      0.241285    28A      0.250397
      29A      0.259157    30A      0.263084    31A      0.270147
      32A      0.280278    33A      0.292501    34A      0.299263
      35A      0.317645    36A      0.343142    37A      0.381395
      38A      0.394491    39A      0.428842    40A      0.573931
      41A      0.584814    42A      0.595724    43A      0.612798
      44A      0.615260    45A      0.627558    46A      0.645853
      47A      0.657603    48A      0.695820    49A      0.743128
      50A      0.791386    51A      0.814953    52A      0.845860
      53A      0.848975    54A      0.872903    55A      0.875899
      56A      0.889765    57A      0.891567    58A      0.895850
      59A      0.902694    60A      0.909517    61A      0.913314
      62A      0.920877    63A      0.934149    64A      0.936153
      65A      0.943480    66A      0.972945    67A      0.995656
      68A      1.056519    69A      1.110694    70A      1.124962
      71A      1.125354    72A      1.144842    73A      1.231354
      74A      1.284635    75A      1.372078    76A      1.467536
      77A      1.474783    78A      1.479046    79A      1.509191
      80A      1.515628    81A      1.580086    82A      1.648590
      83A      1.656561    84A      1.684164    85A      1.687950
      86A      1.696730    87A      1.705039    88A      1.832545
      89A      1.854828    90A      1.863287    91A      1.885236
      92A      1.894606    93A      1.901305    94A      1.917776
      95A      1.920762    96A      1.932792    97A      1.938207
      98A      1.950273    99A      1.952832   100A      1.957822
     101A      1.962454   102A      1.984482   103A      1.992778
     104A      1.994720   105A      2.020250   106A      2.032735
     107A      2.052490   108A      2.119064   109A      2.123926
     110A      2.165678   111A      2.186012   112A      2.267570
     113A      2.288275   114A      2.293445   115A      2.303163
     116A      2.328124   117A      2.354379   118A      2.444969
     119A      2.467341   120A      2.473856   121A      2.537431
     122A      2.572687   123A      2.578536   124A      2.602526
     125A      2.620460   126A      2.648706   127A      2.749873
     128A      2.755401   129A      2.767448   130A      2.780514
     131A      2.801935   132A      2.805365   133A      2.841615
     134A      2.852529   135A      2.926783   136A      2.941937
     137A      2.963306   138A      2.974175   139A      2.991855
     140A      3.088358

    Final Occupation by Irrep:
              A
    DOCC [    22 ]

  @RHF Final Energy:  -197.49865423265658

   => Energetics <=

    Nuclear Repulsion Energy =            178.3565630076929267
    One-Electron Energy =                -617.5138092852914724
    Two-Electron Energy =                 241.6585920449419973
    Total Energy =                       -197.4986542326565768

Computation Completed

Properties will be evaluated at   0.000000,   0.000000,   0.000000 [a0]

Properties computed using the SCF density matrix

  Nuclear Dipole Moment: [e a0]
     X:    -0.0225      Y:    -1.1891      Z:     0.1010

  Electronic Dipole Moment: [e a0]
     X:     0.0193      Y:     1.1537      Z:    -0.1141

  Dipole Moment: [e a0]
     X:    -0.0032      Y:    -0.0354      Z:    -0.0131     Total:     0.0379

  Dipole Moment: [D]
     X:    -0.0082      Y:    -0.0899      Z:    -0.0333     Total:     0.0962

*** tstop() called on ds3 at Sun Apr 26 18:01:17 2020
Module time:
	user time   =      14.96 seconds =       0.25 minutes
	system time =       5.77 seconds =       0.10 minutes
	total time  =         20 seconds =       0.33 minutes
Total time:
	user time   =      14.96 seconds =       0.25 minutes
	system time =       5.77 seconds =       0.10 minutes
	total time  =         20 seconds =       0.33 minutes
                                     G D M A

                                 by Anthony Stone

                           version 2.2.06, 22 June 2011

               Distributed Multipoles from Gaussian wavefunctions

Starting at 18:1:17 on 26 Apr 2020

Using SCF density matrix from file ./SSI/SSI-022LEU-065LEU-1-dimer.test.15461.fchk

                         Distributed Multipole Analysis

Standard DMA

Positions and radii in angstrom
Multipole moments in atomic units, ea_0^k for rank k

C          x =  0.023603  y =  1.517706  z = -0.171010 angstrom
           Maximum rank =  0   Radius =  0.650 angstrom
                   Q00  =  -0.080722

C          x =  1.199603  y =  1.913706  z =  0.730990 angstrom
           Maximum rank =  0   Radius =  0.650 angstrom
                   Q00  =  -0.251634

C          x = -1.372397  y =  1.929706  z =  0.314990 angstrom
           Maximum rank =  0   Radius =  0.650 angstrom
                   Q00  =  -0.245185

H          x =  0.194603  y =  1.973706  z = -1.141010 angstrom
           Maximum rank =  0   Radius =  0.325 angstrom
                   Q00  =   0.043828

H          x =  0.030603  y =  0.440706  z = -0.315010 angstrom
           Maximum rank =  0   Radius =  0.325 angstrom
                   Q00  =   0.054858

H          x =  0.944603  y =  1.681706  z =  1.762990 angstrom
           Maximum rank =  0   Radius =  0.325 angstrom
                   Q00  =   0.072223

H          x = -1.416397  y =  3.016706  z =  0.386990 angstrom
           Maximum rank =  0   Radius =  0.325 angstrom
                   Q00  =   0.075621

H          x =  1.394382  y =  2.994386  z =  0.666310 angstrom
           Maximum rank =  0   Radius =  0.325 angstrom
                   Q00  =   0.081986

H          x =  2.081789  y =  1.293736  z =  0.513320 angstrom
           Maximum rank =  0   Radius =  0.325 angstrom
                   Q00  =   0.084750

H          x = -2.137801  y =  1.606106  z = -0.405730 angstrom
           Maximum rank =  0   Radius =  0.325 angstrom
                   Q00  =   0.085477

H          x = -1.588442  y =  1.519216  z =  1.312400 angstrom
           Maximum rank =  0   Radius =  0.325 angstrom
                   Q00  =   0.078525

C          x = -0.287397  y = -2.291294  z =  0.134990 angstrom
           Maximum rank =  0   Radius =  0.650 angstrom
                   Q00  =  -0.219967

C          x =  0.438603  y = -2.963294  z = -1.019010 angstrom
           Maximum rank =  0   Radius =  0.650 angstrom
                   Q00  =  -0.245014

H          x = -0.500397  y = -3.077294  z =  0.840990 angstrom
           Maximum rank =  0   Radius =  0.325 angstrom
                   Q00  =   0.075324

H          x =  0.340603  y = -1.537294  z =  0.605990 angstrom
           Maximum rank =  0   Radius =  0.325 angstrom
                   Q00  =   0.081054

H          x = -1.220397  y = -1.848294  z = -0.215010 angstrom
           Maximum rank =  0   Radius =  0.325 angstrom
                   Q00  =   0.078338

H          x =  0.449603  y = -2.275294  z = -1.858010 angstrom
           Maximum rank =  0   Radius =  0.325 angstrom
                   Q00  =   0.074878

H          x = -0.081962  y = -3.890974  z = -1.299040 angstrom
           Maximum rank =  0   Radius =  0.325 angstrom
                   Q00  =   0.077986

H          x =  1.485190  y = -3.165534  z = -0.747430 angstrom
           Maximum rank =  0   Radius =  0.325 angstrom
                   Q00  =   0.077671

Total multipoles referred to origin at
           x =   0.000000,  y =    0.000000,  z =    0.000000 angstrom
                   Q00  =  -0.000000

Finished at 18:1:17 on 26 Apr 2020

  DMA results are available in the Python driver through the
	  variable('DMA DISTRIBUTED MULTIPOLES')
  and
	  variable('DMA TOTAL MULTIPOLES')
  commands.

    Psi4 stopped on: Sunday, 26 April 2020 06:01PM
    Psi4 wall time for execution: 0:00:20.33

*** Psi4 exiting successfully. Buy a developer a beer!
