                               Psi4 1.3.2 release

  ==> Input File <==

--------------------------------------------------------------------------
import numpy as np
set {scf_type pk
basis cc-pvdz
d_convergence 10
gdma_switch   0
gdma_limit    0
gdma_origin   [ 0.0,  0.0,  0.0 ]
}
molecule test {
    units Angstrom
    0 1
    --
    0 1
    C                0.743732613369487    -3.192024747081347    -0.615521013630094
    C               -0.477267386630512     0.089975252918653     0.838478986369906
    C                0.724732613369488     0.705975252918653     1.155478986369907
    C               -0.479267386630512    -1.169024747081348     0.270478986369907
    C                0.714732613369488    -1.851024747081347     0.067478986369906
    C                1.914732613369488     0.035975252918653     0.931478986369906
    C                1.909732613369488    -1.225024747081347     0.390478986369906
    H               -1.409267386630512     0.607975252918653     1.012478986369907
    H                0.735732613369488     1.701975252918652     1.573478986369906
    H               -1.413267386630512    -1.613024747081347    -0.025521013630094
    H                2.853732613369488     0.513975252918653     1.174478986369906
    H                1.774732613369488    -3.545024747081347    -0.651521013630093
    H                0.420732613369488    -3.055024747081347    -1.644521013630094
    H                2.849732613369488    -1.720024747081347     0.205478986369906
    H                0.139552613369488    -3.987064747081348    -0.154141013630094
    C               -1.574267386630512     3.292975252918653    -0.996521013630093
    C               -2.860267386630512     2.725975252918652    -1.531521013630094
    H               -1.774267386630512     4.059975252918652    -0.244521013630094
    H               -0.974267386630512     2.501975252918653    -0.547521013630093
    H               -1.003267386630512     3.738975252918653    -1.811521013630094
    H               -2.641267386630513     1.949975252918652    -2.259521013630093
    H               -3.449877386630512     3.531645252918652    -1.993321013630094
    H               -3.450407386630512     2.293745252918652    -0.709991013630094

}
e, wfn = energy('scf', return_wfn=True)
gdma(wfn)
dmavals = variable('DMA DISTRIBUTED MULTIPOLES')
charges = np.array(dmavals)
print(charges)
np.save('SSI-217PHE-247ALA-1-dimer.npy', np.array(charges))--------------------------------------------------------------------------

*** tstart() called on ds3
*** at Sun Apr 26 17:19:03 2020

   => Loading Basis Set <=

    Name: CC-PVDZ
    Role: ORBITAL
    Keyword: BASIS
    atoms 1-7, 16-17  entry C          line   138 file /theoryfs2/ds/metcalf/miniconda2/envs/tf2gpu/share/psi4/basis/cc-pvdz.gbs
    atoms 8-15, 18-23 entry H          line    22 file /theoryfs2/ds/metcalf/miniconda2/envs/tf2gpu/share/psi4/basis/cc-pvdz.gbs

         ---------------------------------------------------------
                                   SCF
               by Justin Turney, Rob Parrish, Andy Simmonett
                          and Daniel G. A. Smith
                              RHF Reference
                        1 Threads,    500 MiB Core
         ---------------------------------------------------------

  ==> Geometry <==

    Molecular point group: c1
    Full point group: C1

    Geometry (in Angstrom), charge = 0, multiplicity = 1:

       Center              X                  Y                   Z               Mass
    ------------   -----------------  -----------------  -----------------  -----------------
         C            0.743732613369    -3.192024747081    -0.615521013630    12.000000000000
         C           -0.477267386631     0.089975252919     0.838478986370    12.000000000000
         C            0.724732613369     0.705975252919     1.155478986370    12.000000000000
         C           -0.479267386631    -1.169024747081     0.270478986370    12.000000000000
         C            0.714732613369    -1.851024747081     0.067478986370    12.000000000000
         C            1.914732613369     0.035975252919     0.931478986370    12.000000000000
         C            1.909732613369    -1.225024747081     0.390478986370    12.000000000000
         H           -1.409267386631     0.607975252919     1.012478986370     1.007825032230
         H            0.735732613369     1.701975252919     1.573478986370     1.007825032230
         H           -1.413267386631    -1.613024747081    -0.025521013630     1.007825032230
         H            2.853732613369     0.513975252919     1.174478986370     1.007825032230
         H            1.774732613369    -3.545024747081    -0.651521013630     1.007825032230
         H            0.420732613369    -3.055024747081    -1.644521013630     1.007825032230
         H            2.849732613369    -1.720024747081     0.205478986370     1.007825032230
         H            0.139552613369    -3.987064747081    -0.154141013630     1.007825032230
         C           -1.574267386631     3.292975252919    -0.996521013630    12.000000000000
         C           -2.860267386631     2.725975252919    -1.531521013630    12.000000000000
         H           -1.774267386631     4.059975252919    -0.244521013630     1.007825032230
         H           -0.974267386631     2.501975252919    -0.547521013630     1.007825032230
         H           -1.003267386631     3.738975252919    -1.811521013630     1.007825032230
         H           -2.641267386631     1.949975252919    -2.259521013630     1.007825032230
         H           -3.449877386631     3.531645252919    -1.993321013630     1.007825032230
         H           -3.450407386631     2.293745252919    -0.709991013630     1.007825032230

  Running in c1 symmetry.

  Rotational constants: A =      0.08239  B =      0.02194  C =      0.01885 [cm^-1]
  Rotational constants: A =   2469.92826  B =    657.85816  C =    565.08763 [MHz]
  Nuclear repulsion =  403.747520202604221

  Charge       = 0
  Multiplicity = 1
  Electrons    = 68
  Nalpha       = 34
  Nbeta        = 34

  ==> Algorithm <==

  SCF Algorithm Type is PK.
  DIIS enabled.
  MOM disabled.
  Fractional occupation disabled.
  Guess Type is SAD.
  Energy threshold   = 1.00e-06
  Density threshold  = 1.00e-10
  Integral threshold = 0.00e+00

  ==> Primary Basis <==

  Basis Set: CC-PVDZ
    Blend: CC-PVDZ
    Number of shells: 96
    Number of basis function: 196
    Number of Cartesian functions: 205
    Spherical Harmonics?: true
    Max angular momentum: 2

  ==> Pre-Iterations <==

   -------------------------------------------------------
    Irrep   Nso     Nmo     Nalpha   Nbeta   Ndocc  Nsocc
   -------------------------------------------------------
     A        196     196       0       0       0       0
   -------------------------------------------------------
    Total     196     196      34      34      34       0
   -------------------------------------------------------

  ==> Integral Setup <==

  Using integral reordering PK algorithm.
  Sizing the integral batches needed.
  Building batch lookup table.
   Calculation information:
      Number of atoms:                  23
      Number of AO shells:              96
      Number of primitives:            268
      Number of atomic orbitals:       205
      Number of basis functions:       196

      Integral cutoff                 1.00e-12
      Number of threads:                 1

	Batch   1 pq = [       0,    9405] index = [             0,44231715] size =     44231715
	Batch   2 pq = [    9405,   13301] index = [      44231715,88464951] size =     44233236
	Batch   3 pq = [   13301,   16290] index = [      88464951,132690195] size =     44225244
	Batch   4 pq = [   16290,   18810] index = [     132690195,176917455] size =     44227260
	Batch   5 pq = [   18810,   19306] index = [     176917455,186370471] size =      9453016
  Task number: 17
  Buffer size: 11059200
  Buffer per thread: 2
  We computed 8943618 shell quartets total.
  Whereas there are 10841496 unique shell quartets.

  ==> DiskJK: Disk-Based J/K Matrices <==

    J tasked:                  Yes
    K tasked:                  Yes
    wK tasked:                  No
    Memory [MiB]:              375
    Schwarz Cutoff:          1E-12

    OpenMP threads:              1

  Minimum eigenvalue in the overlap matrix is 2.9880648198E-04.
  Using Symmetric Orthogonalization.

  SCF Guess: Superposition of Atomic Densities via on-the-fly atomic UHF.

  ==> Iterations <==

                        Total Energy        Delta E     RMS |[F,P]|

   @RHF iter SAD:  -348.01374896075197   -3.48014e+02   0.00000e+00
   @RHF iter   1:  -348.76104256278933   -7.47294e-01   2.94345e-03 DIIS
   @RHF iter   2:  -348.95766620147384   -1.96624e-01   1.23419e-03 DIIS
   @RHF iter   3:  -348.98930788735078   -3.16417e-02   2.60895e-04 DIIS
   @RHF iter   4:  -348.99181069732828   -2.50281e-03   5.47157e-05 DIIS
   @RHF iter   5:  -348.99188838771994   -7.76904e-05   1.84809e-05 DIIS
   @RHF iter   6:  -348.99189669860527   -8.31089e-06   4.95592e-06 DIIS
   @RHF iter   7:  -348.99189741120330   -7.12598e-07   1.27439e-06 DIIS
   @RHF iter   8:  -348.99189747162279   -6.04195e-08   3.46098e-07 DIIS
   @RHF iter   9:  -348.99189748176866   -1.01459e-08   1.57705e-07 DIIS
   @RHF iter  10:  -348.99189748437720   -2.60854e-09   7.23607e-08 DIIS
   @RHF iter  11:  -348.99189748514874   -7.71536e-10   2.32792e-08 DIIS
   @RHF iter  12:  -348.99189748521405   -6.53131e-11   9.41687e-09 DIIS
   @RHF iter  13:  -348.99189748521752   -3.46745e-12   3.72717e-09 DIIS
   @RHF iter  14:  -348.99189748521991   -2.38742e-12   8.57096e-10 DIIS
   @RHF iter  15:  -348.99189748522116   -1.25056e-12   3.60798e-10 DIIS
   @RHF iter  16:  -348.99189748521968    1.47793e-12   1.48427e-10 DIIS
   @RHF iter  17:  -348.99189748522036   -6.82121e-13   6.38665e-11 DIIS
  Energy and wave function converged.

  ==> Post-Iterations <==

    Orbital Energies [Eh]
    ---------------------

    Doubly Occupied:

       1A    -11.239731     2A    -11.233812     3A    -11.231615
       4A    -11.229185     5A    -11.228735     6A    -11.228325
       7A    -11.226890     8A    -11.215402     9A    -11.210902
      10A     -1.158571    11A     -1.045786    12A     -1.022132
      13A     -1.016937    14A     -0.932667    15A     -0.831868
      16A     -0.825219    17A     -0.799158    18A     -0.694462
      19A     -0.634623    20A     -0.629220    21A     -0.600497
      22A     -0.597227    23A     -0.584597    24A     -0.577253
      25A     -0.563985    26A     -0.533156    27A     -0.502909
      28A     -0.492361    29A     -0.485165    30A     -0.483370
      31A     -0.481699    32A     -0.477297    33A     -0.335956
      34A     -0.322228

    Virtual:

      35A      0.136490    36A      0.142712    37A      0.171616
      38A      0.191864    39A      0.205733    40A      0.224222
      41A      0.228592    42A      0.246233    43A      0.254171
      44A      0.262741    45A      0.267834    46A      0.270272
      47A      0.275603    48A      0.296421    49A      0.313114
      50A      0.330952    51A      0.367973    52A      0.377293
      53A      0.404312    54A      0.456299    55A      0.466294
      56A      0.477488    57A      0.504887    58A      0.567494
      59A      0.593816    60A      0.603640    61A      0.608253
      62A      0.618270    63A      0.625370    64A      0.672775
      65A      0.680381    66A      0.695308    67A      0.696966
      68A      0.706881    69A      0.719246    70A      0.735030
      71A      0.746499    72A      0.751846    73A      0.756583
      74A      0.762276    75A      0.787928    76A      0.811271
      77A      0.847784    78A      0.852101    79A      0.858612
      80A      0.868531    81A      0.874111    82A      0.889391
      83A      0.892130    84A      0.898572    85A      0.900546
      86A      0.902832    87A      0.912114    88A      0.916093
      89A      0.929032    90A      0.945579    91A      0.949453
      92A      0.953061    93A      0.987845    94A      1.011495
      95A      1.026541    96A      1.081316    97A      1.116640
      98A      1.131597    99A      1.140032   100A      1.147493
     101A      1.164336   102A      1.167177   103A      1.201938
     104A      1.217268   105A      1.242960   106A      1.252914
     107A      1.266235   108A      1.295326   109A      1.310904
     110A      1.318264   111A      1.329342   112A      1.338176
     113A      1.413371   114A      1.483822   115A      1.486249
     116A      1.501073   117A      1.528614   118A      1.554005
     119A      1.578429   120A      1.603916   121A      1.670497
     122A      1.683917   123A      1.695534   124A      1.704424
     125A      1.739234   126A      1.749168   127A      1.761150
     128A      1.794519   129A      1.825873   130A      1.858933
     131A      1.867190   132A      1.877517   133A      1.892039
     134A      1.897744   135A      1.906258   136A      1.912451
     137A      1.918190   138A      1.930440   139A      1.942998
     140A      1.949537   141A      1.953666   142A      1.959221
     143A      1.964610   144A      1.969281   145A      1.979003
     146A      1.989895   147A      1.998963   148A      2.017031
     149A      2.043577   150A      2.064843   151A      2.087670
     152A      2.108776   153A      2.113113   154A      2.121061
     155A      2.130582   156A      2.169475   157A      2.173369
     158A      2.185202   159A      2.205645   160A      2.257936
     161A      2.265509   162A      2.294844   163A      2.303440
     164A      2.312857   165A      2.321471   166A      2.339016
     167A      2.359738   168A      2.440528   169A      2.463266
     170A      2.475709   171A      2.486242   172A      2.516318
     173A      2.549141   174A      2.572695   175A      2.578658
     176A      2.641626   177A      2.733965   178A      2.759613
     179A      2.767416   180A      2.771408   181A      2.798294
     182A      2.803607   183A      2.824411   184A      2.853318
     185A      2.857983   186A      2.873829   187A      2.875779
     188A      2.959253   189A      2.978069   190A      3.012741
     191A      3.021702   192A      3.042771   193A      3.179775
     194A      3.220885   195A      3.324543   196A      3.999192

    Final Occupation by Irrep:
              A
    DOCC [    34 ]

  @RHF Final Energy:  -348.99189748522036

   => Energetics <=

    Nuclear Repulsion Energy =            403.7475202026042211
    One-Electron Energy =               -1270.1329489580157315
    Two-Electron Energy =                 517.3935312701912608
    Total Energy =                       -348.9918974852203064

Computation Completed

Properties will be evaluated at   0.000000,   0.000000,   0.000000 [a0]

Properties computed using the SCF density matrix

  Nuclear Dipole Moment: [e a0]
     X:    -6.8826      Y:     6.5436      Z:    -5.6962

  Electronic Dipole Moment: [e a0]
     X:     6.9310      Y:    -6.6795      Z:     5.6051

  Dipole Moment: [e a0]
     X:     0.0485      Y:    -0.1360      Z:    -0.0912     Total:     0.1707

  Dipole Moment: [D]
     X:     0.1232      Y:    -0.3456      Z:    -0.2318     Total:     0.4339

*** tstop() called on ds3 at Sun Apr 26 17:20:38 2020
Module time:
	user time   =      70.91 seconds =       1.18 minutes
	system time =      29.17 seconds =       0.49 minutes
	total time  =         95 seconds =       1.58 minutes
Total time:
	user time   =      70.91 seconds =       1.18 minutes
	system time =      29.17 seconds =       0.49 minutes
	total time  =         95 seconds =       1.58 minutes
                                     G D M A

                                 by Anthony Stone

                           version 2.2.06, 22 June 2011

               Distributed Multipoles from Gaussian wavefunctions

Starting at 17:20:38 on 26 Apr 2020

Using SCF density matrix from file ./SSI/SSI-217PHE-247ALA-1-dimer.test.18121.fchk

                         Distributed Multipole Analysis

Standard DMA

Positions and radii in angstrom
Multipole moments in atomic units, ea_0^k for rank k

C          x =  0.743733  y = -3.192025  z = -0.615521 angstrom
           Maximum rank =  0   Radius =  0.650 angstrom
                   Q00  =  -0.212273

C          x = -0.477267  y =  0.089975  z =  0.838479 angstrom
           Maximum rank =  0   Radius =  0.650 angstrom
                   Q00  =  -0.080449

C          x =  0.724733  y =  0.705975  z =  1.155479 angstrom
           Maximum rank =  0   Radius =  0.650 angstrom
                   Q00  =  -0.084013

C          x = -0.479267  y = -1.169025  z =  0.270479 angstrom
           Maximum rank =  0   Radius =  0.650 angstrom
                   Q00  =  -0.089055

C          x =  0.714733  y = -1.851025  z =  0.067479 angstrom
           Maximum rank =  0   Radius =  0.650 angstrom
                   Q00  =  -0.090529

C          x =  1.914733  y =  0.035975  z =  0.931479 angstrom
           Maximum rank =  0   Radius =  0.650 angstrom
                   Q00  =  -0.037572

C          x =  1.909733  y = -1.225025  z =  0.390479 angstrom
           Maximum rank =  0   Radius =  0.650 angstrom
                   Q00  =  -0.005093

H          x = -1.409267  y =  0.607975  z =  1.012479 angstrom
           Maximum rank =  0   Radius =  0.325 angstrom
                   Q00  =   0.063730

H          x =  0.735733  y =  1.701975  z =  1.573479 angstrom
           Maximum rank =  0   Radius =  0.325 angstrom
                   Q00  =   0.061213

H          x = -1.413267  y = -1.613025  z = -0.025521 angstrom
           Maximum rank =  0   Radius =  0.325 angstrom
                   Q00  =   0.054047

H          x =  2.853733  y =  0.513975  z =  1.174479 angstrom
           Maximum rank =  0   Radius =  0.325 angstrom
                   Q00  =   0.062023

H          x =  1.774733  y = -3.545025  z = -0.651521 angstrom
           Maximum rank =  0   Radius =  0.325 angstrom
                   Q00  =   0.094757

H          x =  0.420733  y = -3.055025  z = -1.644521 angstrom
           Maximum rank =  0   Radius =  0.325 angstrom
                   Q00  =   0.102678

H          x =  2.849733  y = -1.720025  z =  0.205479 angstrom
           Maximum rank =  0   Radius =  0.325 angstrom
                   Q00  =   0.055261

H          x =  0.139553  y = -3.987065  z = -0.154141 angstrom
           Maximum rank =  0   Radius =  0.325 angstrom
                   Q00  =   0.103121

C          x = -1.574267  y =  3.292975  z = -0.996521 angstrom
           Maximum rank =  0   Radius =  0.650 angstrom
                   Q00  =  -0.228380

C          x = -2.860267  y =  2.725975  z = -1.531521 angstrom
           Maximum rank =  0   Radius =  0.650 angstrom
                   Q00  =  -0.235795

H          x = -1.774267  y =  4.059975  z = -0.244521 angstrom
           Maximum rank =  0   Radius =  0.325 angstrom
                   Q00  =   0.072108

H          x = -0.974267  y =  2.501975  z = -0.547521 angstrom
           Maximum rank =  0   Radius =  0.325 angstrom
                   Q00  =   0.091952

H          x = -1.003267  y =  3.738975  z = -1.811521 angstrom
           Maximum rank =  0   Radius =  0.325 angstrom
                   Q00  =   0.076496

H          x = -2.641267  y =  1.949975  z = -2.259521 angstrom
           Maximum rank =  0   Radius =  0.325 angstrom
                   Q00  =   0.080340

H          x = -3.449877  y =  3.531645  z = -1.993321 angstrom
           Maximum rank =  0   Radius =  0.325 angstrom
                   Q00  =   0.074942

H          x = -3.450407  y =  2.293745  z = -0.709991 angstrom
           Maximum rank =  0   Radius =  0.325 angstrom
                   Q00  =   0.070491

Total multipoles referred to origin at
           x =   0.000000,  y =    0.000000,  z =    0.000000 angstrom
                   Q00  =  -0.000000

Finished at 17:20:38 on 26 Apr 2020

  DMA results are available in the Python driver through the
	  variable('DMA DISTRIBUTED MULTIPOLES')
  and
	  variable('DMA TOTAL MULTIPOLES')
  commands.

    Psi4 stopped on: Sunday, 26 April 2020 05:20PM
    Psi4 wall time for execution: 0:01:35.80

*** Psi4 exiting successfully. Buy a developer a beer!
