                               Psi4 1.3.2 release

  ==> Input File <==

--------------------------------------------------------------------------
import numpy as np
set {scf_type pk
basis cc-pvdz
d_convergence 10
gdma_switch   0
gdma_limit    0
gdma_origin   [ 0.0,  0.0,  0.0 ]
}
molecule test {
    units Angstrom
    0 1
    --
    0 1
    C                0.508917321371181     1.804852804212871    -1.777006497652101
    C                0.843917321371181     1.034852804212871    -0.465006497652102
    O                1.104917321371181    -0.190147195787129    -0.469006497652102
    O                0.711917321371181     1.658852804212871     0.619993502347899
    H                0.891917321371181     2.824852804212871    -1.698006497652102
    H               -0.579082678628819     1.874852804212871    -1.851006497652102
    H                0.878127321371181     1.375692804212872    -2.720136497652101
    C               -2.076082678628819    -2.175147195787128     0.521993502347899
    N               -0.899082678628819    -1.813147195787129     1.349993502347898
    H               -0.998082678628819    -0.891147195787129     1.758993502347898
    H               -0.767082678628819    -2.470147195787129     2.110993502347899
    H               -0.043082678628819    -1.798147195787129     0.801993502347898
    H               -2.999082678628819    -2.141147195787128     1.106993502347899
    H               -1.961082678628819    -3.222147195787128     0.217993502347898
    H               -2.153272678628819    -1.582367195787129    -0.401396497652102

}
e, wfn = energy('scf', return_wfn=True)
gdma(wfn)
dmavals = variable('DMA DISTRIBUTED MULTIPOLES')
charges = np.array(dmavals)
print(charges)
np.save('SSI-007GLU-033LYS-2-dimer.npy', np.array(charges))--------------------------------------------------------------------------

*** tstart() called on ds3
*** at Mon Apr 27 21:06:34 2020

   => Loading Basis Set <=

    Name: CC-PVDZ
    Role: ORBITAL
    Keyword: BASIS
    atoms 1-2, 8     entry C          line   138 file /theoryfs2/ds/metcalf/miniconda2/envs/tf2gpu/share/psi4/basis/cc-pvdz.gbs
    atoms 3-4        entry O          line   198 file /theoryfs2/ds/metcalf/miniconda2/envs/tf2gpu/share/psi4/basis/cc-pvdz.gbs
    atoms 5-7, 10-15 entry H          line    22 file /theoryfs2/ds/metcalf/miniconda2/envs/tf2gpu/share/psi4/basis/cc-pvdz.gbs
    atoms 9          entry N          line   168 file /theoryfs2/ds/metcalf/miniconda2/envs/tf2gpu/share/psi4/basis/cc-pvdz.gbs

         ---------------------------------------------------------
                                   SCF
               by Justin Turney, Rob Parrish, Andy Simmonett
                          and Daniel G. A. Smith
                              RHF Reference
                        1 Threads,    500 MiB Core
         ---------------------------------------------------------

  ==> Geometry <==

    Molecular point group: c1
    Full point group: C1

    Geometry (in Angstrom), charge = 0, multiplicity = 1:

       Center              X                  Y                   Z               Mass
    ------------   -----------------  -----------------  -----------------  -----------------
         C            0.508917321371     1.804852804213    -1.777006497652    12.000000000000
         C            0.843917321371     1.034852804213    -0.465006497652    12.000000000000
         O            1.104917321371    -0.190147195787    -0.469006497652    15.994914619570
         O            0.711917321371     1.658852804213     0.619993502348    15.994914619570
         H            0.891917321371     2.824852804213    -1.698006497652     1.007825032230
         H           -0.579082678629     1.874852804213    -1.851006497652     1.007825032230
         H            0.878127321371     1.375692804213    -2.720136497652     1.007825032230
         C           -2.076082678629    -2.175147195787     0.521993502348    12.000000000000
         N           -0.899082678629    -1.813147195787     1.349993502348    14.003074004430
         H           -0.998082678629    -0.891147195787     1.758993502348     1.007825032230
         H           -0.767082678629    -2.470147195787     2.110993502348     1.007825032230
         H           -0.043082678629    -1.798147195787     0.801993502348     1.007825032230
         H           -2.999082678629    -2.141147195787     1.106993502348     1.007825032230
         H           -1.961082678629    -3.222147195787     0.217993502348     1.007825032230
         H           -2.153272678629    -1.582367195787    -0.401396497652     1.007825032230

  Running in c1 symmetry.

  Rotational constants: A =      0.18583  B =      0.04128  C =      0.03884 [cm^-1]
  Rotational constants: A =   5571.00816  B =   1237.51865  C =   1164.33074 [MHz]
  Nuclear repulsion =  233.841877684234674

  Charge       = 0
  Multiplicity = 1
  Electrons    = 50
  Nalpha       = 25
  Nbeta        = 25

  ==> Algorithm <==

  SCF Algorithm Type is PK.
  DIIS enabled.
  MOM disabled.
  Fractional occupation disabled.
  Guess Type is SAD.
  Energy threshold   = 1.00e-06
  Density threshold  = 1.00e-10
  Integral threshold = 0.00e+00

  ==> Primary Basis <==

  Basis Set: CC-PVDZ
    Blend: CC-PVDZ
    Number of shells: 63
    Number of basis function: 129
    Number of Cartesian functions: 135
    Spherical Harmonics?: true
    Max angular momentum: 2

  ==> Pre-Iterations <==

   -------------------------------------------------------
    Irrep   Nso     Nmo     Nalpha   Nbeta   Ndocc  Nsocc
   -------------------------------------------------------
     A        129     129       0       0       0       0
   -------------------------------------------------------
    Total     129     129      25      25      25       0
   -------------------------------------------------------

  ==> Integral Setup <==

  Using integral reordering PK algorithm.
  Sizing the integral batches needed.
  Building batch lookup table.
   Calculation information:
      Number of atoms:                  15
      Number of AO shells:              63
      Number of primitives:            177
      Number of atomic orbitals:       135
      Number of basis functions:       129

      Integral cutoff                 1.00e-12
      Number of threads:                 1

	Batch   1 pq = [       0,    8385] index = [             0,35158305] size =     35158305
  Task number: 4
  Buffer size: 11059200
  Buffer per thread: 2
  We computed 1671674 shell quartets total.
  Whereas there are 2033136 unique shell quartets.

  ==> DiskJK: Disk-Based J/K Matrices <==

    J tasked:                  Yes
    K tasked:                  Yes
    wK tasked:                  No
    Memory [MiB]:              375
    Schwarz Cutoff:          1E-12

    OpenMP threads:              1

  Minimum eigenvalue in the overlap matrix is 6.0886419156E-03.
  Using Symmetric Orthogonalization.

  SCF Guess: Superposition of Atomic Densities via on-the-fly atomic UHF.

  ==> Iterations <==

                        Total Energy        Delta E     RMS |[F,P]|

   @RHF iter SAD:  -321.59163421571395   -3.21592e+02   0.00000e+00
   @RHF iter   1:  -322.75112308382882   -1.15949e+00   5.34501e-03 DIIS
   @RHF iter   2:  -322.92469285255572   -1.73570e-01   3.03299e-03 DIIS
   @RHF iter   3:  -322.97854265598460   -5.38498e-02   4.80152e-04 DIIS
   @RHF iter   4:  -322.98108841855020   -2.54576e-03   1.58167e-04 DIIS
   @RHF iter   5:  -322.98137500639024   -2.86588e-04   2.97597e-05 DIIS
   @RHF iter   6:  -322.98138712233089   -1.21159e-05   1.44009e-05 DIIS
   @RHF iter   7:  -322.98138885129663   -1.72897e-06   3.08515e-06 DIIS
   @RHF iter   8:  -322.98138909867453   -2.47378e-07   1.31037e-06 DIIS
   @RHF iter   9:  -322.98138914622518   -4.75507e-08   4.60666e-07 DIIS
   @RHF iter  10:  -322.98138915243231   -6.20713e-09   1.60438e-07 DIIS
   @RHF iter  11:  -322.98138915301263   -5.80314e-10   3.84606e-08 DIIS
   @RHF iter  12:  -322.98138915304543   -3.27987e-11   1.02296e-08 DIIS
   @RHF iter  13:  -322.98138915304645   -1.02318e-12   3.52229e-09 DIIS
   @RHF iter  14:  -322.98138915304844   -1.98952e-12   1.22251e-09 DIIS
   @RHF iter  15:  -322.98138915304878   -3.41061e-13   5.61315e-10 DIIS
   @RHF iter  16:  -322.98138915304929   -5.11591e-13   2.60965e-10 DIIS
   @RHF iter  17:  -322.98138915304872    5.68434e-13   9.25123e-11 DIIS
  Energy and wave function converged.

  ==> Post-Iterations <==

    Orbital Energies [Eh]
    ---------------------

    Doubly Occupied:

       1A    -20.405349     2A    -20.389093     3A    -15.761303
       4A    -11.364945     5A    -11.254206     6A    -11.168057
       7A     -1.380969     8A     -1.284784     9A     -1.166373
      10A     -1.037271    11A     -0.906496    12A     -0.837301
      13A     -0.831594    14A     -0.732572    15A     -0.644182
      16A     -0.631942    17A     -0.628198    18A     -0.537460
      19A     -0.524012    20A     -0.522051    21A     -0.466300
      22A     -0.436059    23A     -0.320946    24A     -0.303388
      25A     -0.297721

    Virtual:

      26A      0.085824    27A      0.143094    28A      0.164314
      29A      0.183951    30A      0.202583    31A      0.230790
      32A      0.256671    33A      0.277529    34A      0.290082
      35A      0.315820    36A      0.361952    37A      0.457006
      38A      0.489981    39A      0.502762    40A      0.551020
      41A      0.561739    42A      0.580353    43A      0.644272
      44A      0.691751    45A      0.701557    46A      0.772096
      47A      0.774889    48A      0.779839    49A      0.789261
      50A      0.810178    51A      0.834135    52A      0.857117
      53A      0.895925    54A      0.908750    55A      0.925506
      56A      0.928866    57A      0.945751    58A      0.951083
      59A      0.970524    60A      0.999976    61A      1.046329
      62A      1.063343    63A      1.098520    64A      1.158479
      65A      1.221965    66A      1.236194    67A      1.301605
      68A      1.376845    69A      1.407718    70A      1.417971
      71A      1.436436    72A      1.449787    73A      1.474747
      74A      1.510785    75A      1.537810    76A      1.584848
      77A      1.597913    78A      1.689547    79A      1.716423
      80A      1.730727    81A      1.741247    82A      1.775633
      83A      1.804294    84A      1.828288    85A      1.851865
      86A      1.859345    87A      1.904775    88A      1.958661
      89A      1.976110    90A      2.025144    91A      2.041378
      92A      2.061810    93A      2.081951    94A      2.088882
      95A      2.092737    96A      2.107854    97A      2.119086
      98A      2.209457    99A      2.264078   100A      2.305585
     101A      2.321565   102A      2.371172   103A      2.389270
     104A      2.437150   105A      2.510458   106A      2.550133
     107A      2.562041   108A      2.591855   109A      2.617874
     110A      2.650179   111A      2.654643   112A      2.795199
     113A      2.848798   114A      2.855689   115A      2.871417
     116A      2.877710   117A      2.895233   118A      3.104456
     119A      3.142594   120A      3.155979   121A      3.214663
     122A      3.227506   123A      3.247005   124A      3.505219
     125A      3.593262   126A      3.686132   127A      3.924085
     128A      3.931071   129A      4.055182

    Final Occupation by Irrep:
              A
    DOCC [    25 ]

  @RHF Final Energy:  -322.98138915304872

   => Energetics <=

    Nuclear Repulsion Energy =            233.8418776842346745
    One-Electron Energy =                -905.9813908507287579
    Two-Electron Energy =                 349.1581240134453878
    Total Energy =                       -322.9813891530487240

Computation Completed

Properties will be evaluated at   0.000000,   0.000000,   0.000000 [a0]

Properties computed using the SCF density matrix

  Nuclear Dipole Moment: [e a0]
     X:    -7.2360      Y:    -5.6403      Z:    -0.6347

  Electronic Dipole Moment: [e a0]
     X:     3.8623      Y:     1.5204      Z:     2.2220

  Dipole Moment: [e a0]
     X:    -3.3737      Y:    -4.1200      Z:     1.5873     Total:     5.5566

  Dipole Moment: [D]
     X:    -8.5751      Y:   -10.4719      Z:     4.0345     Total:    14.1234

*** tstop() called on ds3 at Mon Apr 27 21:06:58 2020
Module time:
	user time   =      11.82 seconds =       0.20 minutes
	system time =       5.00 seconds =       0.08 minutes
	total time  =         24 seconds =       0.40 minutes
Total time:
	user time   =      11.82 seconds =       0.20 minutes
	system time =       5.00 seconds =       0.08 minutes
	total time  =         24 seconds =       0.40 minutes
                                     G D M A

                                 by Anthony Stone

                           version 2.2.06, 22 June 2011

               Distributed Multipoles from Gaussian wavefunctions

Starting at 21:6:58 on 27 Apr 2020

Using SCF density matrix from file ./SSI/SSI-007GLU-033LYS-2-dimer.test.23618.fchk

                         Distributed Multipole Analysis

Standard DMA

Positions and radii in angstrom
Multipole moments in atomic units, ea_0^k for rank k

C          x =  0.508917  y =  1.804853  z = -1.777006 angstrom
           Maximum rank =  0   Radius =  0.650 angstrom
                   Q00  =  -0.288654

C          x =  0.843917  y =  1.034853  z = -0.465006 angstrom
           Maximum rank =  0   Radius =  0.650 angstrom
                   Q00  =   0.920357

O          x =  1.104917  y = -0.190147  z = -0.469006 angstrom
           Maximum rank =  0   Radius =  0.650 angstrom
                   Q00  =  -0.950576

O          x =  0.711917  y =  1.658853  z =  0.619994 angstrom
           Maximum rank =  0   Radius =  0.650 angstrom
                   Q00  =  -0.906295

H          x =  0.891917  y =  2.824853  z = -1.698006 angstrom
           Maximum rank =  0   Radius =  0.325 angstrom
                   Q00  =   0.094175

H          x = -0.579083  y =  1.874853  z = -1.851007 angstrom
           Maximum rank =  0   Radius =  0.325 angstrom
                   Q00  =   0.084349

H          x =  0.878127  y =  1.375693  z = -2.720136 angstrom
           Maximum rank =  0   Radius =  0.325 angstrom
                   Q00  =   0.071846

C          x = -2.076083  y = -2.175147  z =  0.521994 angstrom
           Maximum rank =  0   Radius =  0.650 angstrom
                   Q00  =  -0.139526

N          x = -0.899083  y = -1.813147  z =  1.349994 angstrom
           Maximum rank =  0   Radius =  0.650 angstrom
                   Q00  =  -0.104359

H          x = -0.998083  y = -0.891147  z =  1.758994 angstrom
           Maximum rank =  0   Radius =  0.325 angstrom
                   Q00  =   0.266777

H          x = -0.767083  y = -2.470147  z =  2.110994 angstrom
           Maximum rank =  0   Radius =  0.325 angstrom
                   Q00  =   0.224823

H          x = -0.043083  y = -1.798147  z =  0.801994 angstrom
           Maximum rank =  0   Radius =  0.325 angstrom
                   Q00  =   0.285835

H          x = -2.999083  y = -2.141147  z =  1.106994 angstrom
           Maximum rank =  0   Radius =  0.325 angstrom
                   Q00  =   0.135598

H          x = -1.961083  y = -3.222147  z =  0.217994 angstrom
           Maximum rank =  0   Radius =  0.325 angstrom
                   Q00  =   0.134185

H          x = -2.153273  y = -1.582367  z = -0.401396 angstrom
           Maximum rank =  0   Radius =  0.325 angstrom
                   Q00  =   0.171468

Total multipoles referred to origin at
           x =   0.000000,  y =    0.000000,  z =    0.000000 angstrom
                   Q00  =  -0.000000

Finished at 21:6:58 on 27 Apr 2020

  DMA results are available in the Python driver through the
	  variable('DMA DISTRIBUTED MULTIPOLES')
  and
	  variable('DMA TOTAL MULTIPOLES')
  commands.

    Psi4 stopped on: Monday, 27 April 2020 09:06PM
    Psi4 wall time for execution: 0:00:24.17

*** Psi4 exiting successfully. Buy a developer a beer!
