                               Psi4 1.3.2 release

  ==> Input File <==

--------------------------------------------------------------------------
import numpy as np
set {scf_type pk
basis cc-pvdz
d_convergence 10
gdma_switch   0
gdma_limit    0
gdma_origin   [ 0.0,  0.0,  0.0 ]
}
molecule test {
    units Angstrom
    0 1
    --
    0 1
    C               -1.085521266063584    -0.388912903454723     2.433516465657868
    C                0.235478733936416    -1.039912903454723     2.708516465657868
    N               -0.895521266063584     0.923087096545277     1.767516465657868
    H               -1.670521266063584    -1.044912903454723     1.779516465657868
    H               -1.636521266063584    -0.275912903454723     3.373516465657868
    H                0.918478733936416    -0.863912903454723     1.876516465657868
    H                0.080478733936416    -2.118912903454724     2.774516465657868
    H               -0.578521266063584     0.758087096545277     0.805516465657868
    H               -1.778521266063584     1.415087096545277     1.693516465657868
    H               -0.242521266063584     1.524087096545277     2.254516465657868
    H                0.708148733936416    -0.708274903454723     3.644786465657868
    C                1.740478733936416     0.686087096545277    -1.710483534342132
    C                0.389478733936416     0.049087096545277    -1.759483534342132
    O               -0.314521266063584    -0.061912903454723    -0.733483534342132
    O                0.007478733936416    -0.301912903454723    -2.888483534342132
    H                1.800478733936416     1.399087096545277    -2.535483534342132
    H                2.495478733936416    -0.083912903454723    -1.879483534342132
    H                1.979488733936416     1.207166096545277    -0.771683534342132

}
e, wfn = energy('scf', return_wfn=True)
gdma(wfn)
dmavals = variable('DMA DISTRIBUTED MULTIPOLES')
charges = np.array(dmavals)
print(charges)
np.save('SSI-190LYS-193GLU-1-dimer.npy', np.array(charges))--------------------------------------------------------------------------

*** tstart() called on ds3
*** at Tue Apr 28 05:40:23 2020

   => Loading Basis Set <=

    Name: CC-PVDZ
    Role: ORBITAL
    Keyword: BASIS
    atoms 1-2, 12-13  entry C          line   138 file /theoryfs2/ds/metcalf/miniconda2/envs/tf2gpu/share/psi4/basis/cc-pvdz.gbs
    atoms 3           entry N          line   168 file /theoryfs2/ds/metcalf/miniconda2/envs/tf2gpu/share/psi4/basis/cc-pvdz.gbs
    atoms 4-11, 16-18 entry H          line    22 file /theoryfs2/ds/metcalf/miniconda2/envs/tf2gpu/share/psi4/basis/cc-pvdz.gbs
    atoms 14-15       entry O          line   198 file /theoryfs2/ds/metcalf/miniconda2/envs/tf2gpu/share/psi4/basis/cc-pvdz.gbs

         ---------------------------------------------------------
                                   SCF
               by Justin Turney, Rob Parrish, Andy Simmonett
                          and Daniel G. A. Smith
                              RHF Reference
                        1 Threads,    500 MiB Core
         ---------------------------------------------------------

  ==> Geometry <==

    Molecular point group: c1
    Full point group: C1

    Geometry (in Angstrom), charge = 0, multiplicity = 1:

       Center              X                  Y                   Z               Mass
    ------------   -----------------  -----------------  -----------------  -----------------
         C           -1.085521266064    -0.388912903455     2.433516465658    12.000000000000
         C            0.235478733936    -1.039912903455     2.708516465658    12.000000000000
         N           -0.895521266064     0.923087096545     1.767516465658    14.003074004430
         H           -1.670521266064    -1.044912903455     1.779516465658     1.007825032230
         H           -1.636521266064    -0.275912903455     3.373516465658     1.007825032230
         H            0.918478733936    -0.863912903455     1.876516465658     1.007825032230
         H            0.080478733936    -2.118912903455     2.774516465658     1.007825032230
         H           -0.578521266064     0.758087096545     0.805516465658     1.007825032230
         H           -1.778521266064     1.415087096545     1.693516465658     1.007825032230
         H           -0.242521266064     1.524087096545     2.254516465658     1.007825032230
         H            0.708148733936    -0.708274903455     3.644786465658     1.007825032230
         C            1.740478733936     0.686087096545    -1.710483534342    12.000000000000
         C            0.389478733936     0.049087096545    -1.759483534342    12.000000000000
         O           -0.314521266064    -0.061912903455    -0.733483534342    15.994914619570
         O            0.007478733936    -0.301912903455    -2.888483534342    15.994914619570
         H            1.800478733936     1.399087096545    -2.535483534342     1.007825032230
         H            2.495478733936    -0.083912903455    -1.879483534342     1.007825032230
         H            1.979488733936     1.207166096545    -0.771683534342     1.007825032230

  Running in c1 symmetry.

  Rotational constants: A =      0.15416  B =      0.03053  C =      0.02967 [cm^-1]
  Rotational constants: A =   4621.50821  B =    915.40795  C =    889.39979 [MHz]
  Nuclear repulsion =  308.967811365024602

  Charge       = 0
  Multiplicity = 1
  Electrons    = 58
  Nalpha       = 29
  Nbeta        = 29

  ==> Algorithm <==

  SCF Algorithm Type is PK.
  DIIS enabled.
  MOM disabled.
  Fractional occupation disabled.
  Guess Type is SAD.
  Energy threshold   = 1.00e-06
  Density threshold  = 1.00e-10
  Integral threshold = 0.00e+00

  ==> Primary Basis <==

  Basis Set: CC-PVDZ
    Blend: CC-PVDZ
    Number of shells: 75
    Number of basis function: 153
    Number of Cartesian functions: 160
    Spherical Harmonics?: true
    Max angular momentum: 2

  ==> Pre-Iterations <==

   -------------------------------------------------------
    Irrep   Nso     Nmo     Nalpha   Nbeta   Ndocc  Nsocc
   -------------------------------------------------------
     A        153     153       0       0       0       0
   -------------------------------------------------------
    Total     153     153      29      29      29       0
   -------------------------------------------------------

  ==> Integral Setup <==

  Using integral reordering PK algorithm.
  Sizing the integral batches needed.
  Building batch lookup table.
   Calculation information:
      Number of atoms:                  18
      Number of AO shells:              75
      Number of primitives:            209
      Number of atomic orbitals:       160
      Number of basis functions:       153

      Integral cutoff                 1.00e-12
      Number of threads:                 1

	Batch   1 pq = [       0,    9405] index = [             0,44231715] size =     44231715
	Batch   2 pq = [    9405,   11781] index = [      44231715,69401871] size =     25170156
  Task number: 7
  Buffer size: 11059200
  Buffer per thread: 2
  We computed 3545953 shell quartets total.
  Whereas there are 4062675 unique shell quartets.

  ==> DiskJK: Disk-Based J/K Matrices <==

    J tasked:                  Yes
    K tasked:                  Yes
    wK tasked:                  No
    Memory [MiB]:              375
    Schwarz Cutoff:          1E-12

    OpenMP threads:              1

  Minimum eigenvalue in the overlap matrix is 5.0712571731E-03.
  Using Symmetric Orthogonalization.

  SCF Guess: Superposition of Atomic Densities via on-the-fly atomic UHF.

  ==> Iterations <==

                        Total Energy        Delta E     RMS |[F,P]|

   @RHF iter SAD:  -360.87139895557459   -3.60871e+02   0.00000e+00
   @RHF iter   1:  -361.77706925779859   -9.05670e-01   4.67292e-03 DIIS
   @RHF iter   2:  -361.98162496961839   -2.04556e-01   2.54892e-03 DIIS
   @RHF iter   3:  -362.03704545639124   -5.54205e-02   4.51694e-04 DIIS
   @RHF iter   4:  -362.04017447507709   -3.12902e-03   1.65297e-04 DIIS
   @RHF iter   5:  -362.04057768646453   -4.03211e-04   3.38417e-05 DIIS
   @RHF iter   6:  -362.04059935546962   -2.16690e-05   1.80834e-05 DIIS
   @RHF iter   7:  -362.04060388450603   -4.52904e-06   4.34987e-06 DIIS
   @RHF iter   8:  -362.04060464062275   -7.56117e-07   1.95814e-06 DIIS
   @RHF iter   9:  -362.04060478138200   -1.40759e-07   5.71417e-07 DIIS
   @RHF iter  10:  -362.04060479240974   -1.10277e-08   1.58895e-07 DIIS
   @RHF iter  11:  -362.04060479310624   -6.96502e-10   3.37005e-08 DIIS
   @RHF iter  12:  -362.04060479313921   -3.29692e-11   8.58440e-09 DIIS
   @RHF iter  13:  -362.04060479314307   -3.86535e-12   2.59452e-09 DIIS
   @RHF iter  14:  -362.04060479314080    2.27374e-12   1.00230e-09 DIIS
   @RHF iter  15:  -362.04060479314069    1.13687e-13   3.20036e-10 DIIS
   @RHF iter  16:  -362.04060479314188   -1.19371e-12   1.49364e-10 DIIS
   @RHF iter  17:  -362.04060479314029    1.59162e-12   6.60057e-11 DIIS
  Energy and wave function converged.

  ==> Post-Iterations <==

    Orbital Energies [Eh]
    ---------------------

    Doubly Occupied:

       1A    -20.432346     2A    -20.396248     3A    -15.728934
       4A    -11.340153     5A    -11.272824     6A    -11.261235
       7A    -11.174802     8A     -1.360003     9A     -1.307781
      10A     -1.192129    11A     -1.085966    12A     -0.930442
      13A     -0.914867    14A     -0.819277    15A     -0.805812
      16A     -0.714774    17A     -0.662567    18A     -0.645120
      19A     -0.588867    20A     -0.574306    21A     -0.562837
      22A     -0.549236    23A     -0.544994    24A     -0.541127
      25A     -0.482728    26A     -0.450013    27A     -0.345660
      28A     -0.315585    29A     -0.314719

    Virtual:

      30A      0.098659    31A      0.152992    32A      0.158414
      33A      0.185760    34A      0.207834    35A      0.220100
      36A      0.249143    37A      0.262591    38A      0.274081
      39A      0.292628    40A      0.314840    41A      0.335126
      42A      0.353735    43A      0.368402    44A      0.457298
      45A      0.525307    46A      0.537724    47A      0.554376
      48A      0.560780    49A      0.580226    50A      0.611948
      51A      0.624330    52A      0.691960    53A      0.720981
      54A      0.750713    55A      0.760017    56A      0.788671
      57A      0.800943    58A      0.806579    59A      0.817795
      60A      0.829989    61A      0.836313    62A      0.848152
      63A      0.867229    64A      0.889359    65A      0.900255
      66A      0.913550    67A      0.919098    68A      0.931899
      69A      0.960407    70A      0.982862    71A      1.000674
      72A      1.031277    73A      1.068304    74A      1.089172
      75A      1.104596    76A      1.197993    77A      1.214192
      78A      1.220645    79A      1.306305    80A      1.357930
      81A      1.383370    82A      1.407229    83A      1.420331
      84A      1.438222    85A      1.458007    86A      1.494845
      87A      1.542098    88A      1.561076    89A      1.599252
      90A      1.611725    91A      1.621931    92A      1.648704
      93A      1.685656    94A      1.723489    95A      1.738311
      96A      1.777995    97A      1.796981    98A      1.820398
      99A      1.852120   100A      1.882073   101A      1.897711
     102A      1.905967   103A      1.914897   104A      1.931283
     105A      1.943123   106A      1.976815   107A      1.987405
     108A      2.013857   109A      2.037507   110A      2.056826
     111A      2.084269   112A      2.122250   113A      2.123200
     114A      2.161025   115A      2.184779   116A      2.207731
     117A      2.250470   118A      2.262254   119A      2.286960
     120A      2.299738   121A      2.317627   122A      2.333572
     123A      2.406167   124A      2.454441   125A      2.521788
     126A      2.543363   127A      2.552075   128A      2.578395
     129A      2.592495   130A      2.669663   131A      2.687012
     132A      2.701391   133A      2.726538   134A      2.767818
     135A      2.798563   136A      2.839025   137A      2.860219
     138A      2.879531   139A      2.895225   140A      2.960959
     141A      2.982520   142A      3.094537   143A      3.118324
     144A      3.147942   145A      3.216606   146A      3.275058
     147A      3.310121   148A      3.512115   149A      3.669277
     150A      3.688263   151A      3.938287   152A      3.977172
     153A      4.056412

    Final Occupation by Irrep:
              A
    DOCC [    29 ]

  @RHF Final Energy:  -362.04060479314029

   => Energetics <=

    Nuclear Repulsion Energy =            308.9678113650246019
    One-Electron Energy =               -1107.3861271723410482
    Two-Electron Energy =                 436.3777110141762137
    Total Energy =                       -362.0406047931402895

Computation Completed

Properties will be evaluated at   0.000000,   0.000000,   0.000000 [a0]

Properties computed using the SCF density matrix

  Nuclear Dipole Moment: [e a0]
     X:     1.9473      Y:     1.1277      Z:    12.1793

  Electronic Dipole Moment: [e a0]
     X:    -2.6270      Y:     0.3149      Z:    -6.6207

  Dipole Moment: [e a0]
     X:    -0.6798      Y:     1.4426      Z:     5.5586     Total:     5.7829

  Dipole Moment: [D]
     X:    -1.7278      Y:     3.6667      Z:    14.1286     Total:    14.6986

*** tstop() called on ds3 at Tue Apr 28 05:40:55 2020
Module time:
	user time   =      22.75 seconds =       0.38 minutes
	system time =       9.70 seconds =       0.16 minutes
	total time  =         32 seconds =       0.53 minutes
Total time:
	user time   =      22.75 seconds =       0.38 minutes
	system time =       9.70 seconds =       0.16 minutes
	total time  =         32 seconds =       0.53 minutes
                                     G D M A

                                 by Anthony Stone

                           version 2.2.06, 22 June 2011

               Distributed Multipoles from Gaussian wavefunctions

Starting at 5:40:55 on 28 Apr 2020

Using SCF density matrix from file ./SSI/SSI-190LYS-193GLU-1-dimer.test.31774.fchk

                         Distributed Multipole Analysis

Standard DMA

Positions and radii in angstrom
Multipole moments in atomic units, ea_0^k for rank k

C          x = -1.085521  y = -0.388913  z =  2.433516 angstrom
           Maximum rank =  0   Radius =  0.650 angstrom
                   Q00  =   0.012741

C          x =  0.235479  y = -1.039913  z =  2.708516 angstrom
           Maximum rank =  0   Radius =  0.650 angstrom
                   Q00  =  -0.234413

N          x = -0.895521  y =  0.923087  z =  1.767516 angstrom
           Maximum rank =  0   Radius =  0.650 angstrom
                   Q00  =  -0.130607

H          x = -1.670521  y = -1.044913  z =  1.779516 angstrom
           Maximum rank =  0   Radius =  0.325 angstrom
                   Q00  =   0.144191

H          x = -1.636521  y = -0.275913  z =  3.373516 angstrom
           Maximum rank =  0   Radius =  0.325 angstrom
                   Q00  =   0.084259

H          x =  0.918479  y = -0.863913  z =  1.876516 angstrom
           Maximum rank =  0   Radius =  0.325 angstrom
                   Q00  =   0.105225

H          x =  0.080479  y = -2.118913  z =  2.774516 angstrom
           Maximum rank =  0   Radius =  0.325 angstrom
                   Q00  =   0.129621

H          x = -0.578521  y =  0.758087  z =  0.805516 angstrom
           Maximum rank =  0   Radius =  0.325 angstrom
                   Q00  =   0.336344

H          x = -1.778521  y =  1.415087  z =  1.693516 angstrom
           Maximum rank =  0   Radius =  0.325 angstrom
                   Q00  =   0.220544

H          x = -0.242521  y =  1.524087  z =  2.254516 angstrom
           Maximum rank =  0   Radius =  0.325 angstrom
                   Q00  =   0.220710

H          x =  0.708149  y = -0.708275  z =  3.644786 angstrom
           Maximum rank =  0   Radius =  0.325 angstrom
                   Q00  =   0.083073

C          x =  1.740479  y =  0.686087  z = -1.710484 angstrom
           Maximum rank =  0   Radius =  0.650 angstrom
                   Q00  =  -0.280085

C          x =  0.389479  y =  0.049087  z = -1.759484 angstrom
           Maximum rank =  0   Radius =  0.650 angstrom
                   Q00  =   0.918686

O          x = -0.314521  y = -0.061913  z = -0.733484 angstrom
           Maximum rank =  0   Radius =  0.650 angstrom
                   Q00  =  -0.988153

O          x =  0.007479  y = -0.301913  z = -2.888484 angstrom
           Maximum rank =  0   Radius =  0.650 angstrom
                   Q00  =  -0.860307

H          x =  1.800479  y =  1.399087  z = -2.535484 angstrom
           Maximum rank =  0   Radius =  0.325 angstrom
                   Q00  =   0.103469

H          x =  2.495479  y = -0.083913  z = -1.879484 angstrom
           Maximum rank =  0   Radius =  0.325 angstrom
                   Q00  =   0.109423

H          x =  1.979489  y =  1.207166  z = -0.771684 angstrom
           Maximum rank =  0   Radius =  0.325 angstrom
                   Q00  =   0.025279

Total multipoles referred to origin at
           x =   0.000000,  y =    0.000000,  z =    0.000000 angstrom
                   Q00  =  -0.000000

Finished at 5:40:55 on 28 Apr 2020

  DMA results are available in the Python driver through the
	  variable('DMA DISTRIBUTED MULTIPOLES')
  and
	  variable('DMA TOTAL MULTIPOLES')
  commands.

    Psi4 stopped on: Tuesday, 28 April 2020 05:40AM
    Psi4 wall time for execution: 0:00:32.32

*** Psi4 exiting successfully. Buy a developer a beer!
