                               Psi4 1.3.2 release

  ==> Input File <==

--------------------------------------------------------------------------
import numpy as np
set {scf_type pk
basis cc-pvdz
d_convergence 10
gdma_switch   0
gdma_limit    0
gdma_origin   [ 0.0,  0.0,  0.0 ]
}
molecule test {
    units Angstrom
    1 1
    --
    1 1
    C               -0.226769957639217     0.620536490971507     3.632376770603996
    C                0.522230042360783     0.295536490971507     2.385376770603996
    O                0.480230042360783     1.027536490971507     1.403376770603996
    N                1.209230042360783    -0.830463509028493     2.403376770603996
    H                0.441230042360783     0.576536490971507     4.487376770603996
    H               -0.922769957639217    -0.208463509028493     3.765376770603996
    H                1.912230042360783    -0.973463509028493     1.694376770603996
    H                1.225230042360783    -1.399463509028493     3.240376770603996
    H               -0.811279957639217     1.548866490971506     3.551436770603996
    C               -1.317769957639217     0.739536490971507    -1.014623229396004
    C               -2.310769957639216     1.721536490971507    -1.584623229396004
    C                0.379230042360783    -0.858463509028493    -1.819623229396004
    N               -0.518769957639217     0.084536490971507    -2.056623229396004
    N                0.601230042360783    -1.262463509028493    -0.584623229396004
    N                1.051230042360783    -1.399463509028493    -2.813623229396004
    H               -0.662769957639217     1.335536490971506    -0.403623229396004
    H               -1.853769957639217    -0.001463509028493    -0.415623229396004
    H               -3.039769957639217     1.965536490971507    -0.812623229396004
    H               -2.841769957639217     1.249536490971507    -2.413623229396004
    H               -0.677769957639217     0.346536490971507    -3.023623229396004
    H                0.140230042360783    -0.791463509028493     0.175376770603996
    H                1.211230042360783    -2.049463509028493    -0.415623229396004
    H                0.955230042360783    -1.039463509028493    -3.752623229396004
    H                1.721230042360783    -2.134463509028493    -2.645623229396004
    H               -1.800679957639217     2.627806490971507    -1.943067229396004

}
e, wfn = energy('scf', return_wfn=True)
gdma(wfn)
dmavals = variable('DMA DISTRIBUTED MULTIPOLES')
charges = np.array(dmavals)
print(charges)
np.save('SSI-040ASN-090ARG-1-dimer.npy', np.array(charges))--------------------------------------------------------------------------

*** tstart() called on ds3
*** at Tue Apr 28 21:23:36 2020

   => Loading Basis Set <=

    Name: CC-PVDZ
    Role: ORBITAL
    Keyword: BASIS
    atoms 1-2, 10-12 entry C          line   138 file /theoryfs2/ds/metcalf/miniconda2/envs/tf2gpu/share/psi4/basis/cc-pvdz.gbs
    atoms 3          entry O          line   198 file /theoryfs2/ds/metcalf/miniconda2/envs/tf2gpu/share/psi4/basis/cc-pvdz.gbs
    atoms 4, 13-15   entry N          line   168 file /theoryfs2/ds/metcalf/miniconda2/envs/tf2gpu/share/psi4/basis/cc-pvdz.gbs
    atoms 5-9, 16-25 entry H          line    22 file /theoryfs2/ds/metcalf/miniconda2/envs/tf2gpu/share/psi4/basis/cc-pvdz.gbs

         ---------------------------------------------------------
                                   SCF
               by Justin Turney, Rob Parrish, Andy Simmonett
                          and Daniel G. A. Smith
                              RHF Reference
                        1 Threads,    500 MiB Core
         ---------------------------------------------------------

  ==> Geometry <==

    Molecular point group: c1
    Full point group: C1

    Geometry (in Angstrom), charge = 1, multiplicity = 1:

       Center              X                  Y                   Z               Mass
    ------------   -----------------  -----------------  -----------------  -----------------
         C           -0.226769957639     0.620536490972     3.632376770604    12.000000000000
         C            0.522230042361     0.295536490972     2.385376770604    12.000000000000
         O            0.480230042361     1.027536490972     1.403376770604    15.994914619570
         N            1.209230042361    -0.830463509028     2.403376770604    14.003074004430
         H            0.441230042361     0.576536490972     4.487376770604     1.007825032230
         H           -0.922769957639    -0.208463509028     3.765376770604     1.007825032230
         H            1.912230042361    -0.973463509028     1.694376770604     1.007825032230
         H            1.225230042361    -1.399463509028     3.240376770604     1.007825032230
         H           -0.811279957639     1.548866490972     3.551436770604     1.007825032230
         C           -1.317769957639     0.739536490972    -1.014623229396    12.000000000000
         C           -2.310769957639     1.721536490972    -1.584623229396    12.000000000000
         C            0.379230042361    -0.858463509028    -1.819623229396    12.000000000000
         N           -0.518769957639     0.084536490972    -2.056623229396    14.003074004430
         N            0.601230042361    -1.262463509028    -0.584623229396    14.003074004430
         N            1.051230042361    -1.399463509028    -2.813623229396    14.003074004430
         H           -0.662769957639     1.335536490972    -0.403623229396     1.007825032230
         H           -1.853769957639    -0.001463509028    -0.415623229396     1.007825032230
         H           -3.039769957639     1.965536490972    -0.812623229396     1.007825032230
         H           -2.841769957639     1.249536490972    -2.413623229396     1.007825032230
         H           -0.677769957639     0.346536490972    -3.023623229396     1.007825032230
         H            0.140230042361    -0.791463509028     0.175376770604     1.007825032230
         H            1.211230042361    -2.049463509028    -0.415623229396     1.007825032230
         H            0.955230042361    -1.039463509028    -3.752623229396     1.007825032230
         H            1.721230042361    -2.134463509028    -2.645623229396     1.007825032230
         H           -1.800679957639     2.627806490972    -1.943067229396     1.007825032230

  Running in c1 symmetry.

  Rotational constants: A =      0.05248  B =      0.02278  C =      0.01661 [cm^-1]
  Rotational constants: A =   1573.21930  B =    682.84922  C =    497.83183 [MHz]
  Nuclear repulsion =  566.597482895733265

  Charge       = 1
  Multiplicity = 1
  Electrons    = 80
  Nalpha       = 40
  Nbeta        = 40

  ==> Algorithm <==

  SCF Algorithm Type is PK.
  DIIS enabled.
  MOM disabled.
  Fractional occupation disabled.
  Guess Type is SAD.
  Energy threshold   = 1.00e-06
  Density threshold  = 1.00e-10
  Integral threshold = 0.00e+00

  ==> Primary Basis <==

  Basis Set: CC-PVDZ
    Blend: CC-PVDZ
    Number of shells: 105
    Number of basis function: 215
    Number of Cartesian functions: 225
    Spherical Harmonics?: true
    Max angular momentum: 2

  ==> Pre-Iterations <==

   -------------------------------------------------------
    Irrep   Nso     Nmo     Nalpha   Nbeta   Ndocc  Nsocc
   -------------------------------------------------------
     A        215     215       0       0       0       0
   -------------------------------------------------------
    Total     215     215      40      40      40       0
   -------------------------------------------------------

  ==> Integral Setup <==

  Using integral reordering PK algorithm.
  Sizing the integral batches needed.
  Building batch lookup table.
   Calculation information:
      Number of atoms:                  25
      Number of AO shells:             105
      Number of primitives:            295
      Number of atomic orbitals:       225
      Number of basis functions:       215

      Integral cutoff                 1.00e-12
      Number of threads:                 1

	Batch   1 pq = [       0,    9405] index = [             0,44231715] size =     44231715
	Batch   2 pq = [    9405,   13301] index = [      44231715,88464951] size =     44233236
	Batch   3 pq = [   13301,   16290] index = [      88464951,132690195] size =     44225244
	Batch   4 pq = [   16290,   18810] index = [     132690195,176917455] size =     44227260
	Batch   5 pq = [   18810,   21030] index = [     176917455,221140965] size =     44223510
	Batch   6 pq = [   21030,   23220] index = [     221140965,269595810] size =     48454845
  Task number: 25
  Buffer size: 11059200
  Buffer per thread: 2
  We computed 13256195 shell quartets total.
  Whereas there are 15487395 unique shell quartets.

  ==> DiskJK: Disk-Based J/K Matrices <==

    J tasked:                  Yes
    K tasked:                  Yes
    wK tasked:                  No
    Memory [MiB]:              375
    Schwarz Cutoff:          1E-12

    OpenMP threads:              1

  Minimum eigenvalue in the overlap matrix is 3.3930721118E-03.
  Using Symmetric Orthogonalization.

  SCF Guess: Superposition of Atomic Densities via on-the-fly atomic UHF.

  ==> Iterations <==

                        Total Energy        Delta E     RMS |[F,P]|

   @RHF iter SAD:  -489.93471450086651   -4.89935e+02   0.00000e+00
   @RHF iter   1:  -490.32865672442762   -3.93942e-01   3.42173e-03 DIIS
   @RHF iter   2:  -490.56948842576276   -2.40832e-01   1.67633e-03 DIIS
   @RHF iter   3:  -490.62016430444351   -5.06759e-02   4.22743e-04 DIIS
   @RHF iter   4:  -490.62475474514895   -4.59044e-03   1.62108e-04 DIIS
   @RHF iter   5:  -490.62543127032694   -6.76525e-04   2.68807e-05 DIIS
   @RHF iter   6:  -490.62547002441181   -3.87541e-05   1.16048e-05 DIIS
   @RHF iter   7:  -490.62547544263532   -5.41822e-06   3.68389e-06 DIIS
   @RHF iter   8:  -490.62547633124007   -8.88605e-07   1.19217e-06 DIIS
   @RHF iter   9:  -490.62547642999846   -9.87584e-08   3.92391e-07 DIIS
   @RHF iter  10:  -490.62547643983180   -9.83334e-09   1.42197e-07 DIIS
   @RHF iter  11:  -490.62547644078910   -9.57300e-10   3.40207e-08 DIIS
   @RHF iter  12:  -490.62547644083946   -5.03633e-11   9.41056e-09 DIIS
   @RHF iter  13:  -490.62547644084356   -4.09273e-12   3.11018e-09 DIIS
   @RHF iter  14:  -490.62547644084714   -3.58114e-12   1.02881e-09 DIIS
   @RHF iter  15:  -490.62547644084668    4.54747e-13   4.14646e-10 DIIS
   @RHF iter  16:  -490.62547644084572    9.66338e-13   1.97075e-10 DIIS
   @RHF iter  17:  -490.62547644084407    1.64846e-12   7.75384e-11 DIIS
  Energy and wave function converged.

  ==> Post-Iterations <==

    Orbital Energies [Eh]
    ---------------------

    Doubly Occupied:

       1A    -20.637980     2A    -15.770780     3A    -15.762938
       4A    -15.758698     5A    -15.716474     6A    -11.566062
       7A    -11.473112     8A    -11.398517     9A    -11.348075
      10A    -11.346238    11A     -1.525263    12A     -1.506919
      13A     -1.381044    14A     -1.371658    15A     -1.351095
      16A     -1.167912    17A     -1.119752    18A     -1.033937
      19A     -0.991830    20A     -0.953987    21A     -0.926359
      22A     -0.913012    23A     -0.854807    24A     -0.838072
      25A     -0.836365    26A     -0.810979    27A     -0.785415
      28A     -0.768365    29A     -0.746446    30A     -0.735597
      31A     -0.699776    32A     -0.671810    33A     -0.665397
      34A     -0.642719    35A     -0.639518    36A     -0.629167
      37A     -0.598423    38A     -0.558037    39A     -0.542083
      40A     -0.537992

    Virtual:

      41A      0.005492    42A      0.037591    43A      0.044635
      44A      0.054703    45A      0.071492    46A      0.073762
      47A      0.078329    48A      0.102224    49A      0.115773
      50A      0.134166    51A      0.143712    52A      0.154001
      53A      0.157165    54A      0.166573    55A      0.174460
      56A      0.195030    57A      0.216337    58A      0.227262
      59A      0.271647    60A      0.279894    61A      0.311339
      62A      0.357933    63A      0.369210    64A      0.382067
      65A      0.431593    66A      0.464931    67A      0.490018
      68A      0.493242    69A      0.517461    70A      0.518972
      71A      0.528416    72A      0.551367    73A      0.559959
      74A      0.570715    75A      0.578948    76A      0.587295
      77A      0.599811    78A      0.628088    79A      0.639767
      80A      0.647525    81A      0.703252    82A      0.717828
      83A      0.735847    84A      0.737071    85A      0.744298
      86A      0.749254    87A      0.761937    88A      0.768453
      89A      0.775397    90A      0.780875    91A      0.785644
      92A      0.803909    93A      0.811662    94A      0.816205
      95A      0.833777    96A      0.844938    97A      0.867660
      98A      0.875581    99A      0.880892   100A      0.907837
     101A      0.917268   102A      0.938755   103A      0.955073
     104A      0.972601   105A      0.994247   106A      1.009404
     107A      1.062781   108A      1.088030   109A      1.102177
     110A      1.117375   111A      1.147289   112A      1.154767
     113A      1.188036   114A      1.206541   115A      1.234074
     116A      1.235377   117A      1.261694   118A      1.270019
     119A      1.281338   120A      1.298852   121A      1.344833
     122A      1.370218   123A      1.398193   124A      1.402400
     125A      1.441242   126A      1.461824   127A      1.516434
     128A      1.539245   129A      1.547388   130A      1.553355
     131A      1.557733   132A      1.566593   133A      1.581579
     134A      1.587807   135A      1.603795   136A      1.625746
     137A      1.689401   138A      1.704925   139A      1.722023
     140A      1.739818   141A      1.741444   142A      1.748500
     143A      1.758821   144A      1.770583   145A      1.782855
     146A      1.792476   147A      1.807300   148A      1.832476
     149A      1.835843   150A      1.842728   151A      1.852339
     152A      1.865157   153A      1.880739   154A      1.898999
     155A      1.908123   156A      1.915515   157A      1.948037
     158A      1.976899   159A      1.994147   160A      2.005893
     161A      2.030440   162A      2.041283   163A      2.079753
     164A      2.085235   165A      2.110523   166A      2.135830
     167A      2.150786   168A      2.155357   169A      2.228342
     170A      2.259232   171A      2.275507   172A      2.287753
     173A      2.308440   174A      2.335936   175A      2.341015
     176A      2.361770   177A      2.366942   178A      2.374276
     179A      2.383596   180A      2.408998   181A      2.429363
     182A      2.461825   183A      2.470577   184A      2.492632
     185A      2.523556   186A      2.534461   187A      2.590935
     188A      2.625133   189A      2.643835   190A      2.648345
     191A      2.652153   192A      2.677352   193A      2.698160
     194A      2.712596   195A      2.749519   196A      2.792768
     197A      2.798318   198A      2.833295   199A      2.863315
     200A      2.868947   201A      2.888253   202A      2.892178
     203A      2.941895   204A      2.970360   205A      3.017039
     206A      3.086540   207A      3.128972   208A      3.145898
     209A      3.206228   210A      3.378947   211A      3.441799
     212A      3.610238   213A      3.680574   214A      3.755462
     215A      3.824468

    Final Occupation by Irrep:
              A
    DOCC [    40 ]

  @RHF Final Energy:  -490.62547644084407

   => Energetics <=

    Nuclear Repulsion Energy =            566.5974828957332647
    One-Electron Energy =               -1779.2807060699744852
    Two-Electron Energy =                 722.0577467333971526
    Total Energy =                       -490.6254764408440678

Computation Completed

Properties will be evaluated at   0.000000,   0.000000,   0.000000 [a0]

Properties computed using the SCF density matrix

  Nuclear Dipole Moment: [e a0]
     X:    -4.6956      Y:     1.0017      Z:     1.0358

  Electronic Dipole Moment: [e a0]
     X:     5.4782      Y:    -3.1777      Z:    -2.4321

  Dipole Moment: [e a0]
     X:     0.7827      Y:    -2.1760      Z:    -1.3963     Total:     2.7014

  Dipole Moment: [D]
     X:     1.9894      Y:    -5.5309      Z:    -3.5490     Total:     6.8662

*** tstop() called on ds3 at Tue Apr 28 21:25:56 2020
Module time:
	user time   =      88.96 seconds =       1.48 minutes
	system time =      37.19 seconds =       0.62 minutes
	total time  =        140 seconds =       2.33 minutes
Total time:
	user time   =      88.96 seconds =       1.48 minutes
	system time =      37.19 seconds =       0.62 minutes
	total time  =        140 seconds =       2.33 minutes
                                     G D M A

                                 by Anthony Stone

                           version 2.2.06, 22 June 2011

               Distributed Multipoles from Gaussian wavefunctions

Starting at 21:25:56 on 28 Apr 2020

Using SCF density matrix from file ./SSI/SSI-040ASN-090ARG-1-dimer.test.21489.fchk

                         Distributed Multipole Analysis

Standard DMA

Positions and radii in angstrom
Multipole moments in atomic units, ea_0^k for rank k

C          x = -0.226770  y =  0.620536  z =  3.632377 angstrom
           Maximum rank =  0   Radius =  0.650 angstrom
                   Q00  =  -0.237426

C          x =  0.522230  y =  0.295536  z =  2.385377 angstrom
           Maximum rank =  0   Radius =  0.650 angstrom
                   Q00  =   0.790685

O          x =  0.480230  y =  1.027536  z =  1.403377 angstrom
           Maximum rank =  0   Radius =  0.650 angstrom
                   Q00  =  -0.794910

N          x =  1.209230  y = -0.830464  z =  2.403377 angstrom
           Maximum rank =  0   Radius =  0.650 angstrom
                   Q00  =  -0.545945

H          x =  0.441230  y =  0.576536  z =  4.487377 angstrom
           Maximum rank =  0   Radius =  0.325 angstrom
                   Q00  =   0.121211

H          x = -0.922770  y = -0.208464  z =  3.765377 angstrom
           Maximum rank =  0   Radius =  0.325 angstrom
                   Q00  =   0.104980

H          x =  1.912230  y = -0.973464  z =  1.694377 angstrom
           Maximum rank =  0   Radius =  0.325 angstrom
                   Q00  =   0.214118

H          x =  1.225230  y = -1.399464  z =  3.240377 angstrom
           Maximum rank =  0   Radius =  0.325 angstrom
                   Q00  =   0.229510

H          x = -0.811280  y =  1.548866  z =  3.551437 angstrom
           Maximum rank =  0   Radius =  0.325 angstrom
                   Q00  =   0.143673

C          x = -1.317770  y =  0.739536  z = -1.014623 angstrom
           Maximum rank =  0   Radius =  0.650 angstrom
                   Q00  =  -0.033587

C          x = -2.310770  y =  1.721536  z = -1.584623 angstrom
           Maximum rank =  0   Radius =  0.650 angstrom
                   Q00  =  -0.211535

C          x =  0.379230  y = -0.858464  z = -1.819623 angstrom
           Maximum rank =  0   Radius =  0.650 angstrom
                   Q00  =   1.085654

N          x = -0.518770  y =  0.084536  z = -2.056623 angstrom
           Maximum rank =  0   Radius =  0.650 angstrom
                   Q00  =  -0.493560

N          x =  0.601230  y = -1.262464  z = -0.584623 angstrom
           Maximum rank =  0   Radius =  0.650 angstrom
                   Q00  =  -0.590864

N          x =  1.051230  y = -1.399464  z = -2.813623 angstrom
           Maximum rank =  0   Radius =  0.650 angstrom
                   Q00  =  -0.600940

H          x = -0.662770  y =  1.335536  z = -0.403623 angstrom
           Maximum rank =  0   Radius =  0.325 angstrom
                   Q00  =   0.133123

H          x = -1.853770  y = -0.001464  z = -0.415623 angstrom
           Maximum rank =  0   Radius =  0.325 angstrom
                   Q00  =   0.077479

H          x = -3.039770  y =  1.965536  z = -0.812623 angstrom
           Maximum rank =  0   Radius =  0.325 angstrom
                   Q00  =   0.134370

H          x = -2.841770  y =  1.249536  z = -2.413623 angstrom
           Maximum rank =  0   Radius =  0.325 angstrom
                   Q00  =   0.078098

H          x = -0.677770  y =  0.346536  z = -3.023623 angstrom
           Maximum rank =  0   Radius =  0.325 angstrom
                   Q00  =   0.223973

H          x =  0.140230  y = -0.791464  z =  0.175377 angstrom
           Maximum rank =  0   Radius =  0.325 angstrom
                   Q00  =   0.299021

H          x =  1.211230  y = -2.049464  z = -0.415623 angstrom
           Maximum rank =  0   Radius =  0.325 angstrom
                   Q00  =   0.248162

H          x =  0.955230  y = -1.039464  z = -3.752623 angstrom
           Maximum rank =  0   Radius =  0.325 angstrom
                   Q00  =   0.262200

H          x =  1.721230  y = -2.134464  z = -2.645623 angstrom
           Maximum rank =  0   Radius =  0.325 angstrom
                   Q00  =   0.258017

H          x = -1.800680  y =  2.627806  z = -1.943067 angstrom
           Maximum rank =  0   Radius =  0.325 angstrom
                   Q00  =   0.104492

Total multipoles referred to origin at
           x =   0.000000,  y =    0.000000,  z =    0.000000 angstrom
                   Q00  =   1.000000

Finished at 21:25:56 on 28 Apr 2020

  DMA results are available in the Python driver through the
	  variable('DMA DISTRIBUTED MULTIPOLES')
  and
	  variable('DMA TOTAL MULTIPOLES')
  commands.

    Psi4 stopped on: Tuesday, 28 April 2020 09:25PM
    Psi4 wall time for execution: 0:02:20.00

*** Psi4 exiting successfully. Buy a developer a beer!
