                               Psi4 1.3.2 release

  ==> Input File <==

--------------------------------------------------------------------------
import numpy as np
set {scf_type pk
basis cc-pvdz
d_convergence 10
gdma_switch   0
gdma_limit    0
gdma_origin   [ 0.0,  0.0,  0.0 ]
}
molecule test {
    units Angstrom
    0 1
    --
    0 1
    C                1.061003160453086     2.538204424211403     0.636487555052291
    C                1.826003160453086     3.757204424211403     0.080487555052291
    C                1.804003160453086     1.239204424211403     0.316487555052291
    C                0.872003160453086     2.672204424211403     2.153487555052291
    H                0.082003160453086     2.524204424211403     0.170487555052291
    H                2.790003160453085     3.807204424211403     0.581487555052291
    H                2.801003160453086     1.264204424211403     0.751487555052291
    H                1.269003160453086     0.376204424211403     0.705487555052291
    H                1.888003160453085     1.096204424211403    -0.759512444947709
    H                1.839003160453086     2.548204424211403     2.642487555052290
    H                0.520003160453086     3.662204424211403     2.421487555052290
    H                1.274813160453086     4.692414424211403     0.258187555052291
    H                2.022393160453086     3.642104424211403    -0.995702444947709
    H                0.172333160453086     1.940004424211403     2.582837555052290
    C                0.154003160453086    -4.094795575788597     0.153487555052291
    C               -1.189996839546914    -0.098795575788597    -0.697512444947709
    C               -0.373996839546914    -0.767795575788597    -1.603512444947709
    C               -1.569996839546914    -0.720795575788597     0.489487555052291
    C                0.059003160453086    -2.057795575788597    -1.321512444947709
    C               -1.127996839546914    -2.010795575788597     0.764487555052291
    C               -0.302996839546914    -2.686795575788597    -0.133512444947709
    O               -1.612996839546914     1.163204424211403    -0.977512444947709
    H               -0.084996839546914    -0.286795575788597    -2.524512444947709
    H               -1.305996839546915     1.434204424211403    -1.862512444947710
    H               -2.200996839546914    -0.200795575788597     1.190487555052291
    H                0.686003160453086    -2.577795575788597    -2.034512444947709
    H               -1.400996839546914    -2.487795575788597     1.692487555052291
    H                0.097003160453086    -4.278795575788597     1.224487555052291
    H                1.194003160453086    -4.204795575788597    -0.157512444947709
    H               -0.462736839546914    -4.850109575788598    -0.355562444947709

}
e, wfn = energy('scf', return_wfn=True)
gdma(wfn)
dmavals = variable('DMA DISTRIBUTED MULTIPOLES')
charges = np.array(dmavals)
print(charges)
np.save('SSI-102ILE-149TYR-2-dimer.npy', np.array(charges))--------------------------------------------------------------------------

*** tstart() called on ds3
*** at Tue Apr 28 13:01:32 2020

   => Loading Basis Set <=

    Name: CC-PVDZ
    Role: ORBITAL
    Keyword: BASIS
    atoms 1-4, 15-21  entry C          line   138 file /theoryfs2/ds/metcalf/miniconda2/envs/tf2gpu/share/psi4/basis/cc-pvdz.gbs
    atoms 5-14, 23-30 entry H          line    22 file /theoryfs2/ds/metcalf/miniconda2/envs/tf2gpu/share/psi4/basis/cc-pvdz.gbs
    atoms 22          entry O          line   198 file /theoryfs2/ds/metcalf/miniconda2/envs/tf2gpu/share/psi4/basis/cc-pvdz.gbs

         ---------------------------------------------------------
                                   SCF
               by Justin Turney, Rob Parrish, Andy Simmonett
                          and Daniel G. A. Smith
                              RHF Reference
                        1 Threads,    500 MiB Core
         ---------------------------------------------------------

  ==> Geometry <==

    Molecular point group: c1
    Full point group: C1

    Geometry (in Angstrom), charge = 0, multiplicity = 1:

       Center              X                  Y                   Z               Mass
    ------------   -----------------  -----------------  -----------------  -----------------
         C            1.061003160453     2.538204424211     0.636487555052    12.000000000000
         C            1.826003160453     3.757204424211     0.080487555052    12.000000000000
         C            1.804003160453     1.239204424211     0.316487555052    12.000000000000
         C            0.872003160453     2.672204424211     2.153487555052    12.000000000000
         H            0.082003160453     2.524204424211     0.170487555052     1.007825032230
         H            2.790003160453     3.807204424211     0.581487555052     1.007825032230
         H            2.801003160453     1.264204424211     0.751487555052     1.007825032230
         H            1.269003160453     0.376204424211     0.705487555052     1.007825032230
         H            1.888003160453     1.096204424211    -0.759512444948     1.007825032230
         H            1.839003160453     2.548204424211     2.642487555052     1.007825032230
         H            0.520003160453     3.662204424211     2.421487555052     1.007825032230
         H            1.274813160453     4.692414424211     0.258187555052     1.007825032230
         H            2.022393160453     3.642104424211    -0.995702444948     1.007825032230
         H            0.172333160453     1.940004424211     2.582837555052     1.007825032230
         C            0.154003160453    -4.094795575789     0.153487555052    12.000000000000
         C           -1.189996839547    -0.098795575789    -0.697512444948    12.000000000000
         C           -0.373996839547    -0.767795575789    -1.603512444948    12.000000000000
         C           -1.569996839547    -0.720795575789     0.489487555052    12.000000000000
         C            0.059003160453    -2.057795575789    -1.321512444948    12.000000000000
         C           -1.127996839547    -2.010795575789     0.764487555052    12.000000000000
         C           -0.302996839547    -2.686795575789    -0.133512444948    12.000000000000
         O           -1.612996839547     1.163204424211    -0.977512444948    15.994914619570
         H           -0.084996839547    -0.286795575789    -2.524512444948     1.007825032230
         H           -1.305996839547     1.434204424211    -1.862512444948     1.007825032230
         H           -2.200996839547    -0.200795575789     1.190487555052     1.007825032230
         H            0.686003160453    -2.577795575789    -2.034512444948     1.007825032230
         H           -1.400996839547    -2.487795575789     1.692487555052     1.007825032230
         H            0.097003160453    -4.278795575789     1.224487555052     1.007825032230
         H            1.194003160453    -4.204795575789    -0.157512444948     1.007825032230
         H           -0.462736839547    -4.850109575789    -0.355562444948     1.007825032230

  Running in c1 symmetry.

  Rotational constants: A =      0.04799  B =      0.01450  C =      0.01377 [cm^-1]
  Rotational constants: A =   1438.75845  B =    434.83324  C =    412.75994 [MHz]
  Nuclear repulsion =  691.976039688576293

  Charge       = 0
  Multiplicity = 1
  Electrons    = 92
  Nalpha       = 46
  Nbeta        = 46

  ==> Algorithm <==

  SCF Algorithm Type is PK.
  DIIS enabled.
  MOM disabled.
  Fractional occupation disabled.
  Guess Type is SAD.
  Energy threshold   = 1.00e-06
  Density threshold  = 1.00e-10
  Integral threshold = 0.00e+00

  ==> Primary Basis <==

  Basis Set: CC-PVDZ
    Blend: CC-PVDZ
    Number of shells: 126
    Number of basis function: 258
    Number of Cartesian functions: 270
    Spherical Harmonics?: true
    Max angular momentum: 2

  ==> Pre-Iterations <==

   -------------------------------------------------------
    Irrep   Nso     Nmo     Nalpha   Nbeta   Ndocc  Nsocc
   -------------------------------------------------------
     A        258     258       0       0       0       0
   -------------------------------------------------------
    Total     258     258      46      46      46       0
   -------------------------------------------------------

  ==> Integral Setup <==

  Using integral reordering PK algorithm.
  Sizing the integral batches needed.
  Building batch lookup table.
   Calculation information:
      Number of atoms:                  30
      Number of AO shells:             126
      Number of primitives:            354
      Number of atomic orbitals:       270
      Number of basis functions:       258

      Integral cutoff                 1.00e-12
      Number of threads:                 1

	Batch   1 pq = [       0,    9405] index = [             0,44231715] size =     44231715
	Batch   2 pq = [    9405,   13301] index = [      44231715,88464951] size =     44233236
	Batch   3 pq = [   13301,   16290] index = [      88464951,132690195] size =     44225244
	Batch   4 pq = [   16290,   18810] index = [     132690195,176917455] size =     44227260
	Batch   5 pq = [   18810,   21030] index = [     176917455,221140965] size =     44223510
	Batch   6 pq = [   21030,   23037] index = [     221140965,265363203] size =     44222238
	Batch   7 pq = [   23037,   24883] index = [     265363203,309594286] size =     44231083
	Batch   8 pq = [   24883,   26601] index = [     309594286,353819901] size =     44225615
	Batch   9 pq = [   26601,   28214] index = [     353819901,398029005] size =     44209104
	Batch  10 pq = [   28214,   29740] index = [     398029005,442248670] size =     44219665
	Batch  11 pq = [   29740,   31191] index = [     442248670,486454836] size =     44206166
	Batch  12 pq = [   31191,   32578] index = [     486454836,530679331] size =     44224495
	Batch  13 pq = [   32578,   33411] index = [     530679331,558164166] size =     27484835
  Task number: 51
  Buffer size: 11059200
  Buffer per thread: 2
  We computed 32514727 shell quartets total.
  Whereas there are 32012001 unique shell quartets.
     1.57 percent of shell quartets recomputed by reordering.

  ==> DiskJK: Disk-Based J/K Matrices <==

    J tasked:                  Yes
    K tasked:                  Yes
    wK tasked:                  No
    Memory [MiB]:              375
    Schwarz Cutoff:          1E-12

    OpenMP threads:              1

  Minimum eigenvalue in the overlap matrix is 3.1588640195E-04.
  Using Symmetric Orthogonalization.

  SCF Guess: Superposition of Atomic Densities via on-the-fly atomic UHF.

  ==> Iterations <==

                        Total Energy        Delta E     RMS |[F,P]|

   @RHF iter SAD:  -500.76206058363226   -5.00762e+02   0.00000e+00
   @RHF iter   1:  -501.60725323799215   -8.45193e-01   2.70187e-03 DIIS
   @RHF iter   2:  -501.88099824825838   -2.73745e-01   1.15262e-03 DIIS
   @RHF iter   3:  -501.92600389788538   -4.50056e-02   2.57829e-04 DIIS
   @RHF iter   4:  -501.92966297377404   -3.65908e-03   9.47633e-05 DIIS
   @RHF iter   5:  -501.93001154620208   -3.48572e-04   1.97248e-05 DIIS
   @RHF iter   6:  -501.93003198595397   -2.04398e-05   6.98297e-06 DIIS
   @RHF iter   7:  -501.93003457082330   -2.58487e-06   1.75329e-06 DIIS
   @RHF iter   8:  -501.93003482845944   -2.57636e-07   6.31009e-07 DIIS
   @RHF iter   9:  -501.93003485765985   -2.92004e-08   2.27120e-07 DIIS
   @RHF iter  10:  -501.93003486116481   -3.50497e-09   7.71553e-08 DIIS
   @RHF iter  11:  -501.93003486188081   -7.16000e-10   3.39439e-08 DIIS
   @RHF iter  12:  -501.93003486208306   -2.02249e-10   1.83009e-08 DIIS
   @RHF iter  13:  -501.93003486213877   -5.57066e-11   7.65704e-09 DIIS
   @RHF iter  14:  -501.93003486214803   -9.26548e-12   2.12440e-09 DIIS
   @RHF iter  15:  -501.93003486214519    2.84217e-12   6.76735e-10 DIIS
   @RHF iter  16:  -501.93003486214337    1.81899e-12   2.03682e-10 DIIS
   @RHF iter  17:  -501.93003486214707   -3.69482e-12   7.57256e-11 DIIS
  Energy and wave function converged.

  ==> Post-Iterations <==

    Orbital Energies [Eh]
    ---------------------

    Doubly Occupied:

       1A    -20.589166     2A    -11.300181     3A    -11.239909
       4A    -11.239506     5A    -11.234409     6A    -11.234249
       7A    -11.231886     8A    -11.228903     9A    -11.212991
      10A    -11.210422    11A    -11.205384    12A    -11.201690
      13A     -1.403669    14A     -1.153307    15A     -1.069610
      16A     -1.038625    17A     -1.020827    18A     -0.927132
      19A     -0.917004    20A     -0.916512    21A     -0.847201
      22A     -0.803657    23A     -0.757884    24A     -0.732730
      25A     -0.672207    26A     -0.643211    27A     -0.626163
      28A     -0.608789    29A     -0.590083    30A     -0.588324
      31A     -0.579400    32A     -0.574956    33A     -0.572373
      34A     -0.569623    35A     -0.529199    36A     -0.526052
      37A     -0.522293    38A     -0.500296    39A     -0.499627
      40A     -0.486657    41A     -0.471888    42A     -0.451023
      43A     -0.450266    44A     -0.442161    45A     -0.341198
      46A     -0.302902

    Virtual:

      47A      0.127495    48A      0.152406    49A      0.165258
      50A      0.184570    51A      0.195346    52A      0.210587
      53A      0.218006    54A      0.238448    55A      0.239764
      56A      0.249713    57A      0.257362    58A      0.265420
      59A      0.270901    60A      0.279355    61A      0.286129
      62A      0.295595    63A      0.309949    64A      0.311115
      65A      0.323891    66A      0.337083    67A      0.367915
      68A      0.374495    69A      0.378923    70A      0.411675
      71A      0.420175    72A      0.432761    73A      0.454169
      74A      0.482786    75A      0.495924    76A      0.504820
      77A      0.563725    78A      0.570108    79A      0.604386
      80A      0.607174    81A      0.612008    82A      0.633594
      83A      0.640554    84A      0.656491    85A      0.666596
      86A      0.687925    87A      0.699015    88A      0.717706
      89A      0.731740    90A      0.734632    91A      0.750249
      92A      0.759830    93A      0.769104    94A      0.779604
      95A      0.784842    96A      0.790662    97A      0.800191
      98A      0.831590    99A      0.840569   100A      0.857849
     101A      0.862339   102A      0.867281   103A      0.870308
     104A      0.880264   105A      0.886770   106A      0.890448
     107A      0.899974   108A      0.904669   109A      0.906100
     110A      0.910171   111A      0.918963   112A      0.921483
     113A      0.925601   114A      0.933487   115A      0.942199
     116A      0.952889   117A      0.957508   118A      0.975771
     119A      0.982224   120A      0.988289   121A      0.993008
     122A      1.002762   123A      1.007314   124A      1.030911
     125A      1.079362   126A      1.087191   127A      1.125354
     128A      1.132633   129A      1.142510   130A      1.147899
     131A      1.162883   132A      1.166462   133A      1.188963
     134A      1.213401   135A      1.246716   136A      1.260178
     137A      1.270539   138A      1.291224   139A      1.310877
     140A      1.312025   141A      1.340173   142A      1.355846
     143A      1.374854   144A      1.376646   145A      1.384760
     146A      1.421254   147A      1.448810   148A      1.482088
     149A      1.507310   150A      1.524466   151A      1.555983
     152A      1.566946   153A      1.567231   154A      1.615320
     155A      1.626619   156A      1.672249   157A      1.680040
     158A      1.682060   159A      1.689078   160A      1.692591
     161A      1.700959   162A      1.709841   163A      1.728756
     164A      1.733817   165A      1.746354   166A      1.763341
     167A      1.782685   168A      1.811389   169A      1.829933
     170A      1.848256   171A      1.862302   172A      1.872190
     173A      1.886077   174A      1.894972   175A      1.897625
     176A      1.914037   177A      1.920463   178A      1.930111
     179A      1.945262   180A      1.947199   181A      1.951814
     182A      1.959824   183A      1.971806   184A      1.972175
     185A      1.976095   186A      1.984199   187A      1.996832
     188A      2.011356   189A      2.019188   190A      2.030306
     191A      2.039283   192A      2.052745   193A      2.057658
     194A      2.066243   195A      2.067233   196A      2.091267
     197A      2.105984   198A      2.116163   199A      2.133300
     200A      2.141783   201A      2.148850   202A      2.154406
     203A      2.171196   204A      2.206833   205A      2.225009
     206A      2.258089   207A      2.266615   208A      2.276844
     209A      2.284005   210A      2.295624   211A      2.298951
     212A      2.323537   213A      2.334005   214A      2.365662
     215A      2.372975   216A      2.383133   217A      2.411859
     218A      2.416811   219A      2.459239   220A      2.472661
     221A      2.490731   222A      2.498738   223A      2.537469
     224A      2.562968   225A      2.603472   226A      2.612795
     227A      2.618436   228A      2.639742   229A      2.661636
     230A      2.719959   231A      2.730460   232A      2.757034
     233A      2.758902   234A      2.771194   235A      2.790710
     236A      2.795794   237A      2.804655   238A      2.808337
     239A      2.819578   240A      2.839292   241A      2.840457
     242A      2.869356   243A      2.873300   244A      2.903182
     245A      2.978590   246A      3.009732   247A      3.040532
     248A      3.052938   249A      3.093118   250A      3.114883
     251A      3.143703   252A      3.262951   253A      3.287063
     254A      3.336698   255A      3.599865   256A      3.680156
     257A      3.967990   258A      4.175649

    Final Occupation by Irrep:
              A
    DOCC [    46 ]

  @RHF Final Energy:  -501.93003486214707

   => Energetics <=

    Nuclear Repulsion Energy =            691.9760396885762930
    One-Electron Energy =               -2053.2810594243237574
    Two-Electron Energy =                 859.3749848736003969
    Total Energy =                       -501.9300348621470675

Computation Completed

Properties will be evaluated at   0.000000,   0.000000,   0.000000 [a0]

Properties computed using the SCF density matrix

  Nuclear Dipole Moment: [e a0]
     X:    10.4730      Y:     7.5994      Z:     5.1810

  Electronic Dipole Moment: [e a0]
     X:   -10.3187      Y:    -7.9543      Z:    -5.6658

  Dipole Moment: [e a0]
     X:     0.1544      Y:    -0.3549      Z:    -0.4848     Total:     0.6203

  Dipole Moment: [D]
     X:     0.3923      Y:    -0.9022      Z:    -1.2322     Total:     1.5768

*** tstop() called on ds3 at Tue Apr 28 13:12:23 2020
Module time:
	user time   =     241.69 seconds =       4.03 minutes
	system time =      90.52 seconds =       1.51 minutes
	total time  =        651 seconds =      10.85 minutes
Total time:
	user time   =     241.69 seconds =       4.03 minutes
	system time =      90.52 seconds =       1.51 minutes
	total time  =        651 seconds =      10.85 minutes
                                     G D M A

                                 by Anthony Stone

                           version 2.2.06, 22 June 2011

               Distributed Multipoles from Gaussian wavefunctions

Starting at 13:12:23 on 28 Apr 2020

Using SCF density matrix from file ./SSI/SSI-102ILE-149TYR-2-dimer.test.15678.fchk

                         Distributed Multipole Analysis

Standard DMA

Positions and radii in angstrom
Multipole moments in atomic units, ea_0^k for rank k

C          x =  1.061003  y =  2.538204  z =  0.636488 angstrom
           Maximum rank =  0   Radius =  0.650 angstrom
                   Q00  =   0.005505

C          x =  1.826003  y =  3.757204  z =  0.080488 angstrom
           Maximum rank =  0   Radius =  0.650 angstrom
                   Q00  =  -0.249930

C          x =  1.804003  y =  1.239204  z =  0.316488 angstrom
           Maximum rank =  0   Radius =  0.650 angstrom
                   Q00  =  -0.240083

C          x =  0.872003  y =  2.672204  z =  2.153488 angstrom
           Maximum rank =  0   Radius =  0.650 angstrom
                   Q00  =  -0.246477

H          x =  0.082003  y =  2.524204  z =  0.170488 angstrom
           Maximum rank =  0   Radius =  0.325 angstrom
                   Q00  =   0.025095

H          x =  2.790003  y =  3.807204  z =  0.581488 angstrom
           Maximum rank =  0   Radius =  0.325 angstrom
                   Q00  =   0.071924

H          x =  2.801003  y =  1.264204  z =  0.751488 angstrom
           Maximum rank =  0   Radius =  0.325 angstrom
                   Q00  =   0.070929

H          x =  1.269003  y =  0.376204  z =  0.705488 angstrom
           Maximum rank =  0   Radius =  0.325 angstrom
                   Q00  =   0.092202

H          x =  1.888003  y =  1.096204  z = -0.759512 angstrom
           Maximum rank =  0   Radius =  0.325 angstrom
                   Q00  =   0.069433

H          x =  1.839003  y =  2.548204  z =  2.642488 angstrom
           Maximum rank =  0   Radius =  0.325 angstrom
                   Q00  =   0.067506

H          x =  0.520003  y =  3.662204  z =  2.421488 angstrom
           Maximum rank =  0   Radius =  0.325 angstrom
                   Q00  =   0.077021

H          x =  1.274813  y =  4.692414  z =  0.258188 angstrom
           Maximum rank =  0   Radius =  0.325 angstrom
                   Q00  =   0.081776

H          x =  2.022393  y =  3.642104  z = -0.995702 angstrom
           Maximum rank =  0   Radius =  0.325 angstrom
                   Q00  =   0.073877

H          x =  0.172333  y =  1.940004  z =  2.582838 angstrom
           Maximum rank =  0   Radius =  0.325 angstrom
                   Q00  =   0.083901

C          x =  0.154003  y = -4.094796  z =  0.153488 angstrom
           Maximum rank =  0   Radius =  0.650 angstrom
                   Q00  =  -0.191986

C          x = -1.189997  y = -0.098796  z = -0.697512 angstrom
           Maximum rank =  0   Radius =  0.650 angstrom
                   Q00  =   0.303542

C          x = -0.373997  y = -0.767796  z = -1.603512 angstrom
           Maximum rank =  0   Radius =  0.650 angstrom
                   Q00  =  -0.170398

C          x = -1.569997  y = -0.720796  z =  0.489488 angstrom
           Maximum rank =  0   Radius =  0.650 angstrom
                   Q00  =  -0.122642

C          x =  0.059003  y = -2.057796  z = -1.321512 angstrom
           Maximum rank =  0   Radius =  0.650 angstrom
                   Q00  =   0.022809

C          x = -1.127997  y = -2.010796  z =  0.764488 angstrom
           Maximum rank =  0   Radius =  0.650 angstrom
                   Q00  =  -0.018722

C          x = -0.302997  y = -2.686796  z = -0.133512 angstrom
           Maximum rank =  0   Radius =  0.650 angstrom
                   Q00  =  -0.137062

O          x = -1.612997  y =  1.163204  z = -0.977512 angstrom
           Maximum rank =  0   Radius =  0.650 angstrom
                   Q00  =  -0.654526

H          x = -0.084997  y = -0.286796  z = -2.524512 angstrom
           Maximum rank =  0   Radius =  0.325 angstrom
                   Q00  =   0.069967

H          x = -1.305997  y =  1.434204  z = -1.862512 angstrom
           Maximum rank =  0   Radius =  0.325 angstrom
                   Q00  =   0.409426

H          x = -2.200997  y = -0.200796  z =  1.190488 angstrom
           Maximum rank =  0   Radius =  0.325 angstrom
                   Q00  =   0.081525

H          x =  0.686003  y = -2.577796  z = -2.034512 angstrom
           Maximum rank =  0   Radius =  0.325 angstrom
                   Q00  =   0.067565

H          x = -1.400997  y = -2.487796  z =  1.692488 angstrom
           Maximum rank =  0   Radius =  0.325 angstrom
                   Q00  =   0.064996

H          x =  0.097003  y = -4.278796  z =  1.224488 angstrom
           Maximum rank =  0   Radius =  0.325 angstrom
                   Q00  =   0.096408

H          x =  1.194003  y = -4.204796  z = -0.157512 angstrom
           Maximum rank =  0   Radius =  0.325 angstrom
                   Q00  =   0.096616

H          x = -0.462737  y = -4.850110  z = -0.355562 angstrom
           Maximum rank =  0   Radius =  0.325 angstrom
                   Q00  =   0.099804

Total multipoles referred to origin at
           x =   0.000000,  y =    0.000000,  z =    0.000000 angstrom
                   Q00  =  -0.000000

Finished at 13:12:23 on 28 Apr 2020

  DMA results are available in the Python driver through the
	  variable('DMA DISTRIBUTED MULTIPOLES')
  and
	  variable('DMA TOTAL MULTIPOLES')
  commands.

    Psi4 stopped on: Tuesday, 28 April 2020 01:12PM
    Psi4 wall time for execution: 0:10:51.17

*** Psi4 exiting successfully. Buy a developer a beer!
