                               Psi4 1.3.2 release

  ==> Input File <==

--------------------------------------------------------------------------
import numpy as np
set {scf_type pk
basis cc-pvdz
d_convergence 10
gdma_switch   0
gdma_limit    0
gdma_origin   [ 0.0,  0.0,  0.0 ]
}
molecule test {
    units Angstrom
    0 1
    --
    0 1
    C                1.095892470596782    -2.049134436560157    -4.851867873746481
    C                0.029892470596782    -0.968134436560157    -1.360867873746482
    C                0.820892470596781    -1.250134436560157    -2.474867873746482
    C               -1.338107529403219    -1.089134436560157    -1.443867873746482
    C                0.245892470596782    -1.687134436560157    -3.663867873746482
    C               -1.919107529403218    -1.490134436560157    -2.653867873746482
    C               -1.126107529403219    -1.812134436560157    -3.736867873746482
    H                0.492892470596781    -0.659134436560157    -0.433867873746482
    H                1.890892470596782    -1.151134436560157    -2.392867873746483
    H               -1.960107529403218    -0.882134436560157    -0.584867873746482
    H               -2.990107529403218    -1.596134436560157    -2.725867873746482
    H                1.884892470596782    -1.303134436560157    -4.951867873746482
    H                0.491892470596782    -2.003134436560157    -5.756867873746482
    H               -1.590107529403219    -2.158134436560157    -4.649867873746481
    H                1.548842470596782    -3.048793436560157    -4.777578873746481
    C                2.554892470596782     2.333865563439843     2.752132126253518
    C               -0.835107529403219     0.981865563439843     1.794132126253518
    C               -1.413107529403218     0.828865563439843     3.039132126253518
    C                0.449892470596782     1.482865563439843     1.709132126253518
    C                1.153892470596782     1.825865563439843     2.852132126253518
    C               -0.730107529403219     1.177865563439843     4.202132126253518
    C                0.546892470596782     1.683865563439843     4.101132126253518
    H               -1.378107529403219     0.710865563439843     0.901132126253518
    H               -2.399107529403218     0.406865563439843     3.125132126253518
    H                0.915892470596782     1.579865563439843     0.737132126253518
    H               -1.193107529403219     1.038865563439843     5.170132126253518
    H                2.738892470596782     3.013865563439843     3.586132126253518
    H                2.670892470596782     2.913865563439843     1.838132126253518
    H                1.075892470596782     1.962865563439843     5.002132126253518
    H                3.318542470596781     1.542383563439843     2.772115126253518

}
e, wfn = energy('scf', return_wfn=True)
gdma(wfn)
dmavals = variable('DMA DISTRIBUTED MULTIPOLES')
charges = np.array(dmavals)
print(charges)
np.save('SSI-079PHE-089PHE-1-dimer.npy', np.array(charges))--------------------------------------------------------------------------

*** tstart() called on ds3
*** at Mon Apr 27 06:27:07 2020

   => Loading Basis Set <=

    Name: CC-PVDZ
    Role: ORBITAL
    Keyword: BASIS
    atoms 1-7, 16-22  entry C          line   138 file /theoryfs2/ds/metcalf/miniconda2/envs/tf2gpu/share/psi4/basis/cc-pvdz.gbs
    atoms 8-15, 23-30 entry H          line    22 file /theoryfs2/ds/metcalf/miniconda2/envs/tf2gpu/share/psi4/basis/cc-pvdz.gbs

         ---------------------------------------------------------
                                   SCF
               by Justin Turney, Rob Parrish, Andy Simmonett
                          and Daniel G. A. Smith
                              RHF Reference
                        1 Threads,    500 MiB Core
         ---------------------------------------------------------

  ==> Geometry <==

    Molecular point group: c1
    Full point group: C1

    Geometry (in Angstrom), charge = 0, multiplicity = 1:

       Center              X                  Y                   Z               Mass
    ------------   -----------------  -----------------  -----------------  -----------------
         C            1.095892470597    -2.049134436560    -4.851867873746    12.000000000000
         C            0.029892470597    -0.968134436560    -1.360867873746    12.000000000000
         C            0.820892470597    -1.250134436560    -2.474867873746    12.000000000000
         C           -1.338107529403    -1.089134436560    -1.443867873746    12.000000000000
         C            0.245892470597    -1.687134436560    -3.663867873746    12.000000000000
         C           -1.919107529403    -1.490134436560    -2.653867873746    12.000000000000
         C           -1.126107529403    -1.812134436560    -3.736867873746    12.000000000000
         H            0.492892470597    -0.659134436560    -0.433867873746     1.007825032230
         H            1.890892470597    -1.151134436560    -2.392867873746     1.007825032230
         H           -1.960107529403    -0.882134436560    -0.584867873746     1.007825032230
         H           -2.990107529403    -1.596134436560    -2.725867873746     1.007825032230
         H            1.884892470597    -1.303134436560    -4.951867873746     1.007825032230
         H            0.491892470597    -2.003134436560    -5.756867873746     1.007825032230
         H           -1.590107529403    -2.158134436560    -4.649867873746     1.007825032230
         H            1.548842470597    -3.048793436560    -4.777578873746     1.007825032230
         C            2.554892470597     2.333865563440     2.752132126254    12.000000000000
         C           -0.835107529403     0.981865563440     1.794132126254    12.000000000000
         C           -1.413107529403     0.828865563440     3.039132126254    12.000000000000
         C            0.449892470597     1.482865563440     1.709132126254    12.000000000000
         C            1.153892470597     1.825865563440     2.852132126254    12.000000000000
         C           -0.730107529403     1.177865563440     4.202132126254    12.000000000000
         C            0.546892470597     1.683865563440     4.101132126254    12.000000000000
         H           -1.378107529403     0.710865563440     0.901132126254     1.007825032230
         H           -2.399107529403     0.406865563440     3.125132126254     1.007825032230
         H            0.915892470597     1.579865563440     0.737132126254     1.007825032230
         H           -1.193107529403     1.038865563440     5.170132126254     1.007825032230
         H            2.738892470597     3.013865563440     3.586132126254     1.007825032230
         H            2.670892470597     2.913865563440     1.838132126254     1.007825032230
         H            1.075892470597     1.962865563440     5.002132126254     1.007825032230
         H            3.318542470597     1.542383563440     2.772115126254     1.007825032230

  Running in c1 symmetry.

  Rotational constants: A =      0.04989  B =      0.00751  C =      0.00663 [cm^-1]
  Rotational constants: A =   1495.80090  B =    225.03163  C =    198.73404 [MHz]
  Nuclear repulsion =  746.579406754958200

  Charge       = 0
  Multiplicity = 1
  Electrons    = 100
  Nalpha       = 50
  Nbeta        = 50

  ==> Algorithm <==

  SCF Algorithm Type is PK.
  DIIS enabled.
  MOM disabled.
  Fractional occupation disabled.
  Guess Type is SAD.
  Energy threshold   = 1.00e-06
  Density threshold  = 1.00e-10
  Integral threshold = 0.00e+00

  ==> Primary Basis <==

  Basis Set: CC-PVDZ
    Blend: CC-PVDZ
    Number of shells: 132
    Number of basis function: 276
    Number of Cartesian functions: 290
    Spherical Harmonics?: true
    Max angular momentum: 2

  ==> Pre-Iterations <==

   -------------------------------------------------------
    Irrep   Nso     Nmo     Nalpha   Nbeta   Ndocc  Nsocc
   -------------------------------------------------------
     A        276     276       0       0       0       0
   -------------------------------------------------------
    Total     276     276      50      50      50       0
   -------------------------------------------------------

  ==> Integral Setup <==

  Using integral reordering PK algorithm.
  Sizing the integral batches needed.
  Building batch lookup table.
   Calculation information:
      Number of atoms:                  30
      Number of AO shells:             132
      Number of primitives:            388
      Number of atomic orbitals:       290
      Number of basis functions:       276

      Integral cutoff                 1.00e-12
      Number of threads:                 1

	Batch   1 pq = [       0,    9405] index = [             0,44231715] size =     44231715
	Batch   2 pq = [    9405,   13301] index = [      44231715,88464951] size =     44233236
	Batch   3 pq = [   13301,   16290] index = [      88464951,132690195] size =     44225244
	Batch   4 pq = [   16290,   18810] index = [     132690195,176917455] size =     44227260
	Batch   5 pq = [   18810,   21030] index = [     176917455,221140965] size =     44223510
	Batch   6 pq = [   21030,   23037] index = [     221140965,265363203] size =     44222238
	Batch   7 pq = [   23037,   24883] index = [     265363203,309594286] size =     44231083
	Batch   8 pq = [   24883,   26601] index = [     309594286,353819901] size =     44225615
	Batch   9 pq = [   26601,   28214] index = [     353819901,398029005] size =     44209104
	Batch  10 pq = [   28214,   29740] index = [     398029005,442248670] size =     44219665
	Batch  11 pq = [   29740,   31191] index = [     442248670,486454836] size =     44206166
	Batch  12 pq = [   31191,   32578] index = [     486454836,530679331] size =     44224495
	Batch  13 pq = [   32578,   33908] index = [     530679331,574893186] size =     44213855
	Batch  14 pq = [   33908,   35188] index = [     574893186,619115266] size =     44222080
	Batch  15 pq = [   35188,   36423] index = [     619115266,663335676] size =     44220410
	Batch  16 pq = [   36423,   37617] index = [     663335676,707538153] size =     44202477
	Batch  17 pq = [   37617,   38226] index = [     707538153,730632651] size =     23094498
  Task number: 67
  Buffer size: 11059200
  Buffer per thread: 2
  We computed 29922509 shell quartets total.
  Whereas there are 38531031 unique shell quartets.

  ==> DiskJK: Disk-Based J/K Matrices <==

    J tasked:                  Yes
    K tasked:                  Yes
    wK tasked:                  No
    Memory [MiB]:              375
    Schwarz Cutoff:          1E-12

    OpenMP threads:              1

  Minimum eigenvalue in the overlap matrix is 2.8954161825E-04.
  Using Symmetric Orthogonalization.

  SCF Guess: Superposition of Atomic Densities via on-the-fly atomic UHF.

  ==> Iterations <==

                        Total Energy        Delta E     RMS |[F,P]|

   @RHF iter SAD:  -538.56304435643801   -5.38563e+02   0.00000e+00
   @RHF iter   1:  -539.22134838906004   -6.58304e-01   2.33136e-03 DIIS
   @RHF iter   2:  -539.47695717103375   -2.55609e-01   9.59521e-04 DIIS
   @RHF iter   3:  -539.51522019521781   -3.82630e-02   2.19337e-04 DIIS
   @RHF iter   4:  -539.51841967457426   -3.19948e-03   5.48120e-05 DIIS
   @RHF iter   5:  -539.51856387019814   -1.44196e-04   1.67300e-05 DIIS
   @RHF iter   6:  -539.51857702969517   -1.31595e-05   4.57307e-06 DIIS
   @RHF iter   7:  -539.51857825669913   -1.22700e-06   1.11704e-06 DIIS
   @RHF iter   8:  -539.51857836497823   -1.08279e-07   3.54803e-07 DIIS
   @RHF iter   9:  -539.51857838660521   -2.16270e-08   1.63854e-07 DIIS
   @RHF iter  10:  -539.51857839146703   -4.86182e-09   8.40676e-08 DIIS
   @RHF iter  11:  -539.51857839314903   -1.68200e-09   2.85703e-08 DIIS
   @RHF iter  12:  -539.51857839330705   -1.58025e-10   1.22544e-08 DIIS
   @RHF iter  13:  -539.51857839332547   -1.84173e-11   3.83227e-09 DIIS
   @RHF iter  14:  -539.51857839333002   -4.54747e-12   1.09464e-09 DIIS
   @RHF iter  15:  -539.51857839332706    2.95586e-12   5.53737e-10 DIIS
   @RHF iter  16:  -539.51857839332706    0.00000e+00   2.44413e-10 DIIS
   @RHF iter  17:  -539.51857839333206   -5.00222e-12   1.15624e-10 DIIS
   @RHF iter  18:  -539.51857839332638    5.68434e-12   4.18474e-11 DIIS
  Energy and wave function converged.

  ==> Post-Iterations <==

    Orbital Energies [Eh]
    ---------------------

    Doubly Occupied:

       1A    -11.238758     2A    -11.238479     3A    -11.234369
       4A    -11.234058     5A    -11.233333     6A    -11.233007
       7A    -11.230482     8A    -11.229595     9A    -11.229330
      10A    -11.229047    11A    -11.228939    12A    -11.228493
      13A    -11.227839    14A    -11.227288    15A     -1.157734
      16A     -1.156200    17A     -1.046696    18A     -1.045986
      19A     -1.017403    20A     -1.012901    21A     -0.932353
      22A     -0.931408    23A     -0.826401    24A     -0.825429
      25A     -0.798237    26A     -0.797051    27A     -0.696454
      28A     -0.690037    29A     -0.634855    30A     -0.633638
      31A     -0.631061    32A     -0.627821    33A     -0.589787
      34A     -0.581236    35A     -0.577542    36A     -0.577441
      37A     -0.563461    38A     -0.560877    39A     -0.534925
      40A     -0.533657    41A     -0.491156    42A     -0.489415
      43A     -0.486357    44A     -0.484568    45A     -0.482176
      46A     -0.480023    47A     -0.336325    48A     -0.333871
      49A     -0.322816    50A     -0.321399

    Virtual:

      51A      0.133815    52A      0.136907    53A      0.138695
      54A      0.142771    55A      0.177142    56A      0.191214
      57A      0.199057    58A      0.209489    59A      0.216206
      60A      0.229203    61A      0.245483    62A      0.251337
      63A      0.254752    64A      0.264522    65A      0.268288
      66A      0.282706    67A      0.288116    68A      0.290012
      69A      0.313139    70A      0.337533    71A      0.366921
      72A      0.368283    73A      0.375458    74A      0.387505
      75A      0.441414    76A      0.452693    77A      0.469012
      78A      0.474832    79A      0.483279    80A      0.488646
      81A      0.496415    82A      0.510795    83A      0.565342
      84A      0.571252    85A      0.597024    86A      0.599579
      87A      0.634854    88A      0.640190    89A      0.672258
      90A      0.682382    91A      0.687921    92A      0.688736
      93A      0.694987    94A      0.705838    95A      0.714165
      96A      0.716388    97A      0.733636    98A      0.736659
      99A      0.740800   100A      0.742885   101A      0.746810
     102A      0.748247   103A      0.755245   104A      0.761868
     105A      0.766679   106A      0.769582   107A      0.780162
     108A      0.782967   109A      0.787972   110A      0.807988
     111A      0.839886   112A      0.842382   113A      0.847755
     114A      0.861210   115A      0.867187   116A      0.875624
     117A      0.877326   118A      0.880182   119A      0.887556
     120A      0.890967   121A      0.904065   122A      0.906245
     123A      0.911109   124A      0.925198   125A      0.928916
     126A      0.931094   127A      0.939521   128A      0.943251
     129A      0.953597   130A      0.980383   131A      0.996792
     132A      0.998144   133A      1.013784   134A      1.042989
     135A      1.057587   136A      1.071292   137A      1.125123
     138A      1.139224   139A      1.142173   140A      1.146769
     141A      1.150900   142A      1.165892   143A      1.168783
     144A      1.184195   145A      1.187830   146A      1.210022
     147A      1.233972   148A      1.241101   149A      1.248645
     150A      1.252737   151A      1.258179   152A      1.260921
     153A      1.268302   154A      1.279799   155A      1.301259
     156A      1.308790   157A      1.316068   158A      1.321296
     159A      1.325099   160A      1.326078   161A      1.332681
     162A      1.344333   163A      1.415241   164A      1.420432
     165A      1.501395   166A      1.513180   167A      1.526169
     168A      1.537509   169A      1.558878   170A      1.563494
     171A      1.607300   172A      1.617431   173A      1.672488
     174A      1.681795   175A      1.699863   176A      1.707376
     177A      1.734914   178A      1.738585   179A      1.747338
     180A      1.752405   181A      1.758615   182A      1.762776
     183A      1.789931   184A      1.792657   185A      1.814097
     186A      1.817369   187A      1.858457   188A      1.867040
     189A      1.885146   190A      1.894728   191A      1.898334
     192A      1.906341   193A      1.912075   194A      1.913075
     195A      1.917331   196A      1.922412   197A      1.927086
     198A      1.934852   199A      1.940808   200A      1.945973
     201A      1.955027   202A      1.967826   203A      1.972094
     204A      1.978608   205A      1.987541   206A      1.994113
     207A      2.001401   208A      2.004714   209A      2.040741
     210A      2.043784   211A      2.067576   212A      2.072402
     213A      2.074410   214A      2.078546   215A      2.111375
     216A      2.118054   217A      2.141291   218A      2.155963
     219A      2.162230   220A      2.165757   221A      2.173207
     222A      2.181758   223A      2.182411   224A      2.187959
     225A      2.191788   226A      2.215253   227A      2.249762
     228A      2.263589   229A      2.282253   230A      2.295833
     231A      2.297550   232A      2.301204   233A      2.307830
     234A      2.311406   235A      2.316801   236A      2.328117
     237A      2.341495   238A      2.353186   239A      2.469615
     240A      2.476892   241A      2.482357   242A      2.484912
     243A      2.504998   244A      2.511496   245A      2.546624
     246A      2.550861   247A      2.625240   248A      2.634805
     249A      2.740578   250A      2.747005   251A      2.760664
     252A      2.766658   253A      2.770263   254A      2.778210
     255A      2.794341   256A      2.802461   257A      2.820385
     258A      2.827013   259A      2.850434   260A      2.856471
     261A      2.879951   262A      2.889002   263A      2.991937
     264A      2.997108   265A      3.017119   266A      3.025895
     267A      3.029312   268A      3.036726   269A      3.166833
     270A      3.169200   271A      3.212794   272A      3.223613
     273A      3.312687   274A      3.317649   275A      3.985693
     276A      3.994469

    Final Occupation by Irrep:
              A
    DOCC [    50 ]

  @RHF Final Energy:  -539.51857839332638

   => Energetics <=

    Nuclear Repulsion Energy =            746.5794067549581996
    One-Electron Energy =               -2209.2925414096844179
    Two-Electron Energy =                 923.1945562613998391
    Total Energy =                       -539.5185783933263792

Computation Completed

Properties will be evaluated at   0.000000,   0.000000,   0.000000 [a0]

Properties computed using the SCF density matrix

  Nuclear Dipole Moment: [e a0]
     X:     5.1738      Y:     0.3447      Z:    -2.9452

  Electronic Dipole Moment: [e a0]
     X:    -4.9748      Y:    -0.3758      Z:     2.8662

  Dipole Moment: [e a0]
     X:     0.1989      Y:    -0.0311      Z:    -0.0790     Total:     0.2163

  Dipole Moment: [D]
     X:     0.5057      Y:    -0.0790      Z:    -0.2008     Total:     0.5498

*** tstop() called on ds3 at Mon Apr 27 06:38:40 2020
Module time:
	user time   =     260.30 seconds =       4.34 minutes
	system time =     116.66 seconds =       1.94 minutes
	total time  =        693 seconds =      11.55 minutes
Total time:
	user time   =     260.30 seconds =       4.34 minutes
	system time =     116.66 seconds =       1.94 minutes
	total time  =        693 seconds =      11.55 minutes
                                     G D M A

                                 by Anthony Stone

                           version 2.2.06, 22 June 2011

               Distributed Multipoles from Gaussian wavefunctions

Starting at 6:38:40 on 27 Apr 2020

Using SCF density matrix from file ./SSI/SSI-079PHE-089PHE-1-dimer.test.3107.fchk

                         Distributed Multipole Analysis

Standard DMA

Positions and radii in angstrom
Multipole moments in atomic units, ea_0^k for rank k

C          x =  1.095892  y = -2.049134  z = -4.851868 angstrom
           Maximum rank =  0   Radius =  0.650 angstrom
                   Q00  =  -0.205140

C          x =  0.029892  y = -0.968134  z = -1.360868 angstrom
           Maximum rank =  0   Radius =  0.650 angstrom
                   Q00  =  -0.076326

C          x =  0.820892  y = -1.250134  z = -2.474868 angstrom
           Maximum rank =  0   Radius =  0.650 angstrom
                   Q00  =   0.009532

C          x = -1.338108  y = -1.089134  z = -1.443868 angstrom
           Maximum rank =  0   Radius =  0.650 angstrom
                   Q00  =  -0.087332

C          x =  0.245892  y = -1.687134  z = -3.663868 angstrom
           Maximum rank =  0   Radius =  0.650 angstrom
                   Q00  =  -0.100067

C          x = -1.919108  y = -1.490134  z = -2.653868 angstrom
           Maximum rank =  0   Radius =  0.650 angstrom
                   Q00  =  -0.058033

C          x = -1.126108  y = -1.812134  z = -3.736868 angstrom
           Maximum rank =  0   Radius =  0.650 angstrom
                   Q00  =  -0.081848

H          x =  0.492892  y = -0.659134  z = -0.433868 angstrom
           Maximum rank =  0   Radius =  0.325 angstrom
                   Q00  =   0.068450

H          x =  1.890892  y = -1.151134  z = -2.392868 angstrom
           Maximum rank =  0   Radius =  0.325 angstrom
                   Q00  =   0.053542

H          x = -1.960108  y = -0.882134  z = -0.584868 angstrom
           Maximum rank =  0   Radius =  0.325 angstrom
                   Q00  =   0.058238

H          x = -2.990108  y = -1.596134  z = -2.725868 angstrom
           Maximum rank =  0   Radius =  0.325 angstrom
                   Q00  =   0.064273

H          x =  1.884892  y = -1.303134  z = -4.951868 angstrom
           Maximum rank =  0   Radius =  0.325 angstrom
                   Q00  =   0.098861

H          x =  0.491892  y = -2.003134  z = -5.756868 angstrom
           Maximum rank =  0   Radius =  0.325 angstrom
                   Q00  =   0.096966

H          x = -1.590108  y = -2.158134  z = -4.649868 angstrom
           Maximum rank =  0   Radius =  0.325 angstrom
                   Q00  =   0.054789

H          x =  1.548842  y = -3.048793  z = -4.777579 angstrom
           Maximum rank =  0   Radius =  0.325 angstrom
                   Q00  =   0.105753

C          x =  2.554892  y =  2.333866  z =  2.752132 angstrom
           Maximum rank =  0   Radius =  0.650 angstrom
                   Q00  =  -0.198014

C          x = -0.835108  y =  0.981866  z =  1.794132 angstrom
           Maximum rank =  0   Radius =  0.650 angstrom
                   Q00  =  -0.068497

C          x = -1.413108  y =  0.828866  z =  3.039132 angstrom
           Maximum rank =  0   Radius =  0.650 angstrom
                   Q00  =  -0.018315

C          x =  0.449892  y =  1.482866  z =  1.709132 angstrom
           Maximum rank =  0   Radius =  0.650 angstrom
                   Q00  =  -0.048175

C          x =  1.153892  y =  1.825866  z =  2.852132 angstrom
           Maximum rank =  0   Radius =  0.650 angstrom
                   Q00  =  -0.104436

C          x = -0.730108  y =  1.177866  z =  4.202132 angstrom
           Maximum rank =  0   Radius =  0.650 angstrom
                   Q00  =  -0.067210

C          x =  0.546892  y =  1.683866  z =  4.101132 angstrom
           Maximum rank =  0   Radius =  0.650 angstrom
                   Q00  =  -0.085463

H          x = -1.378108  y =  0.710866  z =  0.901132 angstrom
           Maximum rank =  0   Radius =  0.325 angstrom
                   Q00  =   0.059547

H          x = -2.399108  y =  0.406866  z =  3.125132 angstrom
           Maximum rank =  0   Radius =  0.325 angstrom
                   Q00  =   0.055941

H          x =  0.915892  y =  1.579866  z =  0.737132 angstrom
           Maximum rank =  0   Radius =  0.325 angstrom
                   Q00  =   0.053694

H          x = -1.193108  y =  1.038866  z =  5.170132 angstrom
           Maximum rank =  0   Radius =  0.325 angstrom
                   Q00  =   0.065216

H          x =  2.738892  y =  3.013866  z =  3.586132 angstrom
           Maximum rank =  0   Radius =  0.325 angstrom
                   Q00  =   0.095679

H          x =  2.670892  y =  2.913866  z =  1.838132 angstrom
           Maximum rank =  0   Radius =  0.325 angstrom
                   Q00  =   0.098405

H          x =  1.075892  y =  1.962866  z =  5.002132 angstrom
           Maximum rank =  0   Radius =  0.325 angstrom
                   Q00  =   0.055810

H          x =  3.318542  y =  1.542384  z =  2.772115 angstrom
           Maximum rank =  0   Radius =  0.325 angstrom
                   Q00  =   0.104160

Total multipoles referred to origin at
           x =   0.000000,  y =    0.000000,  z =    0.000000 angstrom
                   Q00  =  -0.000000

Finished at 6:38:40 on 27 Apr 2020

  DMA results are available in the Python driver through the
	  variable('DMA DISTRIBUTED MULTIPOLES')
  and
	  variable('DMA TOTAL MULTIPOLES')
  commands.

    Psi4 stopped on: Monday, 27 April 2020 06:38AM
    Psi4 wall time for execution: 0:11:33.10

*** Psi4 exiting successfully. Buy a developer a beer!
