                               Psi4 1.3.2 release

  ==> Input File <==

--------------------------------------------------------------------------
import numpy as np
set {scf_type pk
basis cc-pvdz
d_convergence 10
gdma_switch   0
gdma_limit    0
gdma_origin   [ 0.0,  0.0,  0.0 ]
}
molecule test {
    units Angstrom
    0 1
    --
    0 1
    C               -2.217944526464088    -3.478689387080209     3.061126893785526
    C               -0.730944526464087    -3.520689387080209     3.526126893785526
    H               -2.861944526464087    -3.904689387080209     3.833126893785526
    H               -2.521944526464087    -2.454689387080209     2.872126893785526
    H               -2.339944526464087    -4.051689387080209     2.139126893785526
    H               -0.099944526464087    -3.093689387080210     2.744126893785526
    H               -0.416124526464087    -4.557489387080209     3.715716893785526
    H               -0.556454526464088    -2.908909387080209     4.423496893785526
    C               -1.435944526464087    -1.032689387080209     0.276126893785526
    C               -2.453944526464087    -0.262689387080209     1.151126893785526
    C               -0.139944526464087    -0.289689387080209     0.092126893785526
    C                0.919055473535913    -0.300689387080209     0.938126893785526
    C                0.186055473535913     0.639310612919791    -0.967873106214474
    C                1.479055473535913     1.157310612919791    -0.695873106214474
    C               -0.469944526464087     1.097310612919791    -2.128873106214474
    C                2.117055473535912     2.090310612919791    -1.525873106214474
    C                0.175055473535913     2.037310612919791    -2.957873106214474
    C                1.456055473535913     2.529310612919791    -2.656873106214474
    N                1.889055473535913     0.566310612919791     0.477126893785526
    H               -1.205944526464087    -1.964689387080209     0.788126893785526
    H               -1.816944526464087    -1.263689387080209    -0.723873106214474
    H               -2.080944526464088    -0.245689387080209     2.177126893785526
    H                0.902055473535913    -0.931689387080209     1.820126893785526
    H                2.773055473535912     0.751310612919791     0.937126893785526
    H               -1.458944526464087     0.741310612919791    -2.404873106214474
    H                3.105055473535913     2.445310612919791    -1.261873106214474
    H               -0.337944526464087     2.378310612919791    -3.845873106214474
    H                1.927055473535913     3.251310612919791    -3.308873106214474
    H               -3.428394526464088    -0.772149387080209     1.120976893785526
    H               -2.536944526464088     0.786290612919791     0.830566893785526

}
e, wfn = energy('scf', return_wfn=True)
gdma(wfn)
dmavals = variable('DMA DISTRIBUTED MULTIPOLES')
charges = np.array(dmavals)
print(charges)
np.save('SSI-159ILE-200TRP-1-dimer.npy', np.array(charges))--------------------------------------------------------------------------

*** tstart() called on ds3
*** at Tue Apr 28 12:07:55 2020

   => Loading Basis Set <=

    Name: CC-PVDZ
    Role: ORBITAL
    Keyword: BASIS
    atoms 1-2, 9-18  entry C          line   138 file /theoryfs2/ds/metcalf/miniconda2/envs/tf2gpu/share/psi4/basis/cc-pvdz.gbs
    atoms 3-8, 20-30 entry H          line    22 file /theoryfs2/ds/metcalf/miniconda2/envs/tf2gpu/share/psi4/basis/cc-pvdz.gbs
    atoms 19         entry N          line   168 file /theoryfs2/ds/metcalf/miniconda2/envs/tf2gpu/share/psi4/basis/cc-pvdz.gbs

         ---------------------------------------------------------
                                   SCF
               by Justin Turney, Rob Parrish, Andy Simmonett
                          and Daniel G. A. Smith
                              RHF Reference
                        1 Threads,    500 MiB Core
         ---------------------------------------------------------

  ==> Geometry <==

    Molecular point group: c1
    Full point group: C1

    Geometry (in Angstrom), charge = 0, multiplicity = 1:

       Center              X                  Y                   Z               Mass
    ------------   -----------------  -----------------  -----------------  -----------------
         C           -2.217944526464    -3.478689387080     3.061126893786    12.000000000000
         C           -0.730944526464    -3.520689387080     3.526126893786    12.000000000000
         H           -2.861944526464    -3.904689387080     3.833126893786     1.007825032230
         H           -2.521944526464    -2.454689387080     2.872126893786     1.007825032230
         H           -2.339944526464    -4.051689387080     2.139126893786     1.007825032230
         H           -0.099944526464    -3.093689387080     2.744126893786     1.007825032230
         H           -0.416124526464    -4.557489387080     3.715716893786     1.007825032230
         H           -0.556454526464    -2.908909387080     4.423496893786     1.007825032230
         C           -1.435944526464    -1.032689387080     0.276126893786    12.000000000000
         C           -2.453944526464    -0.262689387080     1.151126893786    12.000000000000
         C           -0.139944526464    -0.289689387080     0.092126893786    12.000000000000
         C            0.919055473536    -0.300689387080     0.938126893786    12.000000000000
         C            0.186055473536     0.639310612920    -0.967873106214    12.000000000000
         C            1.479055473536     1.157310612920    -0.695873106214    12.000000000000
         C           -0.469944526464     1.097310612920    -2.128873106214    12.000000000000
         C            2.117055473536     2.090310612920    -1.525873106214    12.000000000000
         C            0.175055473536     2.037310612920    -2.957873106214    12.000000000000
         C            1.456055473536     2.529310612920    -2.656873106214    12.000000000000
         N            1.889055473536     0.566310612920     0.477126893786    14.003074004430
         H           -1.205944526464    -1.964689387080     0.788126893786     1.007825032230
         H           -1.816944526464    -1.263689387080    -0.723873106214     1.007825032230
         H           -2.080944526464    -0.245689387080     2.177126893786     1.007825032230
         H            0.902055473536    -0.931689387080     1.820126893786     1.007825032230
         H            2.773055473536     0.751310612920     0.937126893786     1.007825032230
         H           -1.458944526464     0.741310612920    -2.404873106214     1.007825032230
         H            3.105055473536     2.445310612920    -1.261873106214     1.007825032230
         H           -0.337944526464     2.378310612920    -3.845873106214     1.007825032230
         H            1.927055473536     3.251310612920    -3.308873106214     1.007825032230
         H           -3.428394526464    -0.772149387080     1.120976893786     1.007825032230
         H           -2.536944526464     0.786290612920     0.830566893786     1.007825032230

  Running in c1 symmetry.

  Rotational constants: A =      0.05873  B =      0.01136  C =      0.00990 [cm^-1]
  Rotational constants: A =   1760.55554  B =    340.51194  C =    296.85109 [MHz]
  Nuclear repulsion =  740.546192480845093

  Charge       = 0
  Multiplicity = 1
  Electrons    = 96
  Nalpha       = 48
  Nbeta        = 48

  ==> Algorithm <==

  SCF Algorithm Type is PK.
  DIIS enabled.
  MOM disabled.
  Fractional occupation disabled.
  Guess Type is SAD.
  Energy threshold   = 1.00e-06
  Density threshold  = 1.00e-10
  Integral threshold = 0.00e+00

  ==> Primary Basis <==

  Basis Set: CC-PVDZ
    Blend: CC-PVDZ
    Number of shells: 129
    Number of basis function: 267
    Number of Cartesian functions: 280
    Spherical Harmonics?: true
    Max angular momentum: 2

  ==> Pre-Iterations <==

   -------------------------------------------------------
    Irrep   Nso     Nmo     Nalpha   Nbeta   Ndocc  Nsocc
   -------------------------------------------------------
     A        267     267       0       0       0       0
   -------------------------------------------------------
    Total     267     267      48      48      48       0
   -------------------------------------------------------

  ==> Integral Setup <==

  Using integral reordering PK algorithm.
  Sizing the integral batches needed.
  Building batch lookup table.
   Calculation information:
      Number of atoms:                  30
      Number of AO shells:             129
      Number of primitives:            371
      Number of atomic orbitals:       280
      Number of basis functions:       267

      Integral cutoff                 1.00e-12
      Number of threads:                 1

	Batch   1 pq = [       0,    9405] index = [             0,44231715] size =     44231715
	Batch   2 pq = [    9405,   13301] index = [      44231715,88464951] size =     44233236
	Batch   3 pq = [   13301,   16290] index = [      88464951,132690195] size =     44225244
	Batch   4 pq = [   16290,   18810] index = [     132690195,176917455] size =     44227260
	Batch   5 pq = [   18810,   21030] index = [     176917455,221140965] size =     44223510
	Batch   6 pq = [   21030,   23037] index = [     221140965,265363203] size =     44222238
	Batch   7 pq = [   23037,   24883] index = [     265363203,309594286] size =     44231083
	Batch   8 pq = [   24883,   26601] index = [     309594286,353819901] size =     44225615
	Batch   9 pq = [   26601,   28214] index = [     353819901,398029005] size =     44209104
	Batch  10 pq = [   28214,   29740] index = [     398029005,442248670] size =     44219665
	Batch  11 pq = [   29740,   31191] index = [     442248670,486454836] size =     44206166
	Batch  12 pq = [   31191,   32578] index = [     486454836,530679331] size =     44224495
	Batch  13 pq = [   32578,   33908] index = [     530679331,574893186] size =     44213855
	Batch  14 pq = [   33908,   35188] index = [     574893186,619115266] size =     44222080
	Batch  15 pq = [   35188,   35778] index = [     619115266,640050531] size =     20935265
  Task number: 58
  Buffer size: 11059200
  Buffer per thread: 2
  We computed 32967436 shell quartets total.
  Whereas there are 35158305 unique shell quartets.

  ==> DiskJK: Disk-Based J/K Matrices <==

    J tasked:                  Yes
    K tasked:                  Yes
    wK tasked:                  No
    Memory [MiB]:              375
    Schwarz Cutoff:          1E-12

    OpenMP threads:              1

  Minimum eigenvalue in the overlap matrix is 2.4428549880E-04.
  Using Symmetric Orthogonalization.

  SCF Guess: Superposition of Atomic Densities via on-the-fly atomic UHF.

  ==> Iterations <==

                        Total Energy        Delta E     RMS |[F,P]|

   @RHF iter SAD:  -517.87377005303949   -5.17874e+02   0.00000e+00
   @RHF iter   1:  -518.49784334827496   -6.24073e-01   2.45232e-03 DIIS
   @RHF iter   2:  -518.74867647387100   -2.50833e-01   1.08859e-03 DIIS
   @RHF iter   3:  -518.79349024535713   -4.48138e-02   2.89301e-04 DIIS
   @RHF iter   4:  -518.79770116846134   -4.21092e-03   1.34146e-04 DIIS
   @RHF iter   5:  -518.79841752522702   -7.16357e-04   1.86338e-05 DIIS
   @RHF iter   6:  -518.79844861256583   -3.10873e-05   8.39420e-06 DIIS
   @RHF iter   7:  -518.79845444227044   -5.82970e-06   3.58125e-06 DIIS
   @RHF iter   8:  -518.79845613429370   -1.69202e-06   1.40160e-06 DIIS
   @RHF iter   9:  -518.79845648751348   -3.53220e-07   6.27012e-07 DIIS
   @RHF iter  10:  -518.79845655896429   -7.14508e-08   2.93740e-07 DIIS
   @RHF iter  11:  -518.79845657614578   -1.71815e-08   1.14399e-07 DIIS
   @RHF iter  12:  -518.79845657886517   -2.71939e-09   4.48538e-08 DIIS
   @RHF iter  13:  -518.79845657910903   -2.43858e-10   1.45089e-08 DIIS
   @RHF iter  14:  -518.79845657912995   -2.09184e-11   4.72355e-09 DIIS
   @RHF iter  15:  -518.79845657913143   -1.47793e-12   1.99775e-09 DIIS
   @RHF iter  16:  -518.79845657913791   -6.48015e-12   9.18192e-10 DIIS
   @RHF iter  17:  -518.79845657913381    4.09273e-12   3.99028e-10 DIIS
   @RHF iter  18:  -518.79845657913870   -4.88853e-12   1.68551e-10 DIIS
   @RHF iter  19:  -518.79845657913529    3.41061e-12   6.70003e-11 DIIS
  Energy and wave function converged.

  ==> Post-Iterations <==

    Orbital Energies [Eh]
    ---------------------

    Doubly Occupied:

       1A    -15.601857     2A    -11.265559     3A    -11.263223
       4A    -11.234706     5A    -11.232132     6A    -11.230631
       7A    -11.228422     8A    -11.227387     9A    -11.223018
      10A    -11.222620    11A    -11.222479    12A    -11.220866
      13A    -11.214198    14A     -1.291301    15A     -1.123901
      16A     -1.080969    17A     -1.016004    18A     -1.010662
      19A     -0.988523    20A     -0.967364    21A     -0.857869
      22A     -0.845215    23A     -0.836441    24A     -0.802490
      25A     -0.743908    26A     -0.716636    27A     -0.667244
      28A     -0.640715    29A     -0.617992    30A     -0.598293
      31A     -0.595193    32A     -0.592445    33A     -0.585671
      34A     -0.581834    35A     -0.571898    36A     -0.544149
      37A     -0.514383    38A     -0.506060    39A     -0.502287
      40A     -0.500925    41A     -0.493476    42A     -0.490013
      43A     -0.479283    44A     -0.462407    45A     -0.458486
      46A     -0.370342    47A     -0.293459    48A     -0.276279

    Virtual:

      49A      0.124310    50A      0.163105    51A      0.167903
      52A      0.183270    53A      0.194943    54A      0.206626
      55A      0.214912    56A      0.226380    57A      0.229453
      58A      0.240150    59A      0.245755    60A      0.261799
      61A      0.262488    62A      0.267475    63A      0.275579
      64A      0.284819    65A      0.299260    66A      0.315335
      67A      0.323889    68A      0.354560    69A      0.374438
      70A      0.378797    71A      0.398424    72A      0.405158
      73A      0.419604    74A      0.428232    75A      0.445411
      76A      0.469237    77A      0.484179    78A      0.505559
      79A      0.513108    80A      0.588883    81A      0.590600
      82A      0.607053    83A      0.613451    84A      0.621042
      85A      0.628752    86A      0.643578    87A      0.655528
      88A      0.665049    89A      0.675094    90A      0.693010
      91A      0.702923    92A      0.715614    93A      0.721581
      94A      0.732534    95A      0.737993    96A      0.744232
      97A      0.752740    98A      0.756539    99A      0.762457
     100A      0.778917   101A      0.787190   102A      0.800421
     103A      0.823388   104A      0.824500   105A      0.840411
     106A      0.842274   107A      0.852409   108A      0.870678
     109A      0.872466   110A      0.879753   111A      0.887271
     112A      0.891779   113A      0.901415   114A      0.907020
     115A      0.914491   116A      0.921510   117A      0.927732
     118A      0.942660   119A      0.950835   120A      0.963844
     121A      0.973095   122A      0.978914   123A      0.979784
     124A      0.986457   125A      0.994916   126A      1.017368
     127A      1.036111   128A      1.069212   129A      1.077988
     130A      1.083910   131A      1.099838   132A      1.120888
     133A      1.127068   134A      1.137209   135A      1.142586
     136A      1.151543   137A      1.160515   138A      1.172840
     139A      1.200319   140A      1.210085   141A      1.233358
     142A      1.245857   143A      1.252354   144A      1.269532
     145A      1.278697   146A      1.286838   147A      1.297241
     148A      1.321076   149A      1.331050   150A      1.358500
     151A      1.365777   152A      1.380521   153A      1.418384
     154A      1.425641   155A      1.458801   156A      1.466375
     157A      1.472753   158A      1.513670   159A      1.531200
     160A      1.572220   161A      1.600186   162A      1.606276
     163A      1.639603   164A      1.642968   165A      1.654914
     166A      1.677699   167A      1.694621   168A      1.700008
     169A      1.724387   170A      1.747510   171A      1.759813
     172A      1.777802   173A      1.785404   174A      1.799432
     175A      1.822145   176A      1.830939   177A      1.854387
     178A      1.867452   179A      1.873600   180A      1.877297
     181A      1.881819   182A      1.897931   183A      1.898544
     184A      1.905022   185A      1.908525   186A      1.918016
     187A      1.921471   188A      1.931574   189A      1.934096
     190A      1.943145   191A      1.945864   192A      1.951010
     193A      1.955624   194A      1.972512   195A      1.983048
     196A      1.994161   197A      2.005889   198A      2.013763
     199A      2.021611   200A      2.027571   201A      2.051529
     202A      2.056769   203A      2.080760   204A      2.082542
     205A      2.090978   206A      2.096135   207A      2.103563
     208A      2.113455   209A      2.122853   210A      2.145852
     211A      2.155042   212A      2.161425   213A      2.165269
     214A      2.196943   215A      2.217599   216A      2.265835
     217A      2.285431   218A      2.286690   219A      2.304349
     220A      2.309871   221A      2.312999   222A      2.317226
     223A      2.333394   224A      2.344252   225A      2.366666
     226A      2.397302   227A      2.445289   228A      2.450258
     229A      2.454678   230A      2.472918   231A      2.511044
     232A      2.535919   233A      2.548434   234A      2.560050
     235A      2.574344   236A      2.590776   237A      2.597706
     238A      2.633306   239A      2.662684   240A      2.706800
     241A      2.721209   242A      2.759577   243A      2.764354
     244A      2.772164   245A      2.779369   246A      2.787879
     247A      2.797401   248A      2.812830   249A      2.839898
     250A      2.857726   251A      2.862343   252A      2.895198
     253A      2.906913   254A      2.927799   255A      2.954912
     256A      2.966049   257A      2.980205   258A      2.998963
     259A      3.022585   260A      3.054199   261A      3.085450
     262A      3.116051   263A      3.198322   264A      3.279488
     265A      3.378199   266A      3.736175   267A      3.927305

    Final Occupation by Irrep:
              A
    DOCC [    48 ]

  @RHF Final Energy:  -518.79845657913529

   => Energetics <=

    Nuclear Repulsion Energy =            740.5461924808450931
    One-Electron Energy =               -2170.6668652120638399
    Two-Electron Energy =                 911.3222161520834561
    Total Energy =                       -518.7984565791352907

Computation Completed

Properties will be evaluated at   0.000000,   0.000000,   0.000000 [a0]

Properties computed using the SCF density matrix

  Nuclear Dipole Moment: [e a0]
     X:   -12.1506      Y:   -14.8092      Z:    14.8635

  Electronic Dipole Moment: [e a0]
     X:    12.5838      Y:    14.6589      Z:   -14.2450

  Dipole Moment: [e a0]
     X:     0.4332      Y:    -0.1503      Z:     0.6185     Total:     0.7699

  Dipole Moment: [D]
     X:     1.1012      Y:    -0.3821      Z:     1.5720     Total:     1.9570

*** tstop() called on ds3 at Tue Apr 28 12:15:13 2020
Module time:
	user time   =     266.22 seconds =       4.44 minutes
	system time =     101.41 seconds =       1.69 minutes
	total time  =        438 seconds =       7.30 minutes
Total time:
	user time   =     266.22 seconds =       4.44 minutes
	system time =     101.41 seconds =       1.69 minutes
	total time  =        438 seconds =       7.30 minutes
                                     G D M A

                                 by Anthony Stone

                           version 2.2.06, 22 June 2011

               Distributed Multipoles from Gaussian wavefunctions

Starting at 12:15:13 on 28 Apr 2020

Using SCF density matrix from file ./SSI/SSI-159ILE-200TRP-1-dimer.test.5219.fchk

                         Distributed Multipole Analysis

Standard DMA

Positions and radii in angstrom
Multipole moments in atomic units, ea_0^k for rank k

C          x = -2.217945  y = -3.478689  z =  3.061127 angstrom
           Maximum rank =  0   Radius =  0.650 angstrom
                   Q00  =  -0.246870

C          x = -0.730945  y = -3.520689  z =  3.526127 angstrom
           Maximum rank =  0   Radius =  0.650 angstrom
                   Q00  =  -0.250187

H          x = -2.861945  y = -3.904689  z =  3.833127 angstrom
           Maximum rank =  0   Radius =  0.325 angstrom
                   Q00  =   0.084437

H          x = -2.521945  y = -2.454689  z =  2.872127 angstrom
           Maximum rank =  0   Radius =  0.325 angstrom
                   Q00  =   0.089232

H          x = -2.339945  y = -4.051689  z =  2.139127 angstrom
           Maximum rank =  0   Radius =  0.325 angstrom
                   Q00  =   0.082947

H          x = -0.099945  y = -3.093689  z =  2.744127 angstrom
           Maximum rank =  0   Radius =  0.325 angstrom
                   Q00  =   0.072831

H          x = -0.416125  y = -4.557489  z =  3.715717 angstrom
           Maximum rank =  0   Radius =  0.325 angstrom
                   Q00  =   0.086940

H          x = -0.556455  y = -2.908909  z =  4.423497 angstrom
           Maximum rank =  0   Radius =  0.325 angstrom
                   Q00  =   0.081872

C          x = -1.435945  y = -1.032689  z =  0.276127 angstrom
           Maximum rank =  0   Radius =  0.650 angstrom
                   Q00  =  -0.045864

C          x = -2.453945  y = -0.262689  z =  1.151127 angstrom
           Maximum rank =  0   Radius =  0.650 angstrom
                   Q00  =  -0.248118

C          x = -0.139945  y = -0.289689  z =  0.092127 angstrom
           Maximum rank =  0   Radius =  0.650 angstrom
                   Q00  =  -0.133362

C          x =  0.919055  y = -0.300689  z =  0.938127 angstrom
           Maximum rank =  0   Radius =  0.650 angstrom
                   Q00  =   0.075668

C          x =  0.186055  y =  0.639311  z = -0.967873 angstrom
           Maximum rank =  0   Radius =  0.650 angstrom
                   Q00  =  -0.046051

C          x =  1.479055  y =  1.157311  z = -0.695873 angstrom
           Maximum rank =  0   Radius =  0.650 angstrom
                   Q00  =   0.259582

C          x = -0.469945  y =  1.097311  z = -2.128873 angstrom
           Maximum rank =  0   Radius =  0.650 angstrom
                   Q00  =  -0.102640

C          x =  2.117055  y =  2.090311  z = -1.525873 angstrom
           Maximum rank =  0   Radius =  0.650 angstrom
                   Q00  =  -0.120119

C          x =  0.175055  y =  2.037311  z = -2.957873 angstrom
           Maximum rank =  0   Radius =  0.650 angstrom
                   Q00  =  -0.053736

C          x =  1.456055  y =  2.529311  z = -2.656873 angstrom
           Maximum rank =  0   Radius =  0.650 angstrom
                   Q00  =  -0.071319

N          x =  1.889055  y =  0.566311  z =  0.477127 angstrom
           Maximum rank =  0   Radius =  0.650 angstrom
                   Q00  =  -0.504530

H          x = -1.205945  y = -1.964689  z =  0.788127 angstrom
           Maximum rank =  0   Radius =  0.325 angstrom
                   Q00  =   0.072054

H          x = -1.816945  y = -1.263689  z = -0.723873 angstrom
           Maximum rank =  0   Radius =  0.325 angstrom
                   Q00  =   0.078096

H          x = -2.080945  y = -0.245689  z =  2.177127 angstrom
           Maximum rank =  0   Radius =  0.325 angstrom
                   Q00  =   0.076347

H          x =  0.902055  y = -0.931689  z =  1.820127 angstrom
           Maximum rank =  0   Radius =  0.325 angstrom
                   Q00  =   0.105028

H          x =  2.773055  y =  0.751311  z =  0.937127 angstrom
           Maximum rank =  0   Radius =  0.325 angstrom
                   Q00  =   0.213623

H          x = -1.458945  y =  0.741311  z = -2.404873 angstrom
           Maximum rank =  0   Radius =  0.325 angstrom
                   Q00  =   0.070865

H          x =  3.105055  y =  2.445311  z = -1.261873 angstrom
           Maximum rank =  0   Radius =  0.325 angstrom
                   Q00  =   0.072731

H          x = -0.337945  y =  2.378311  z = -3.845873 angstrom
           Maximum rank =  0   Radius =  0.325 angstrom
                   Q00  =   0.061310

H          x =  1.927055  y =  3.251311  z = -3.308873 angstrom
           Maximum rank =  0   Radius =  0.325 angstrom
                   Q00  =   0.067290

H          x = -3.428395  y = -0.772149  z =  1.120977 angstrom
           Maximum rank =  0   Radius =  0.325 angstrom
                   Q00  =   0.080454

H          x = -2.536945  y =  0.786291  z =  0.830567 angstrom
           Maximum rank =  0   Radius =  0.325 angstrom
                   Q00  =   0.091491

Total multipoles referred to origin at
           x =   0.000000,  y =    0.000000,  z =    0.000000 angstrom
                   Q00  =  -0.000000

Finished at 12:15:13 on 28 Apr 2020

  DMA results are available in the Python driver through the
	  variable('DMA DISTRIBUTED MULTIPOLES')
  and
	  variable('DMA TOTAL MULTIPOLES')
  commands.

    Psi4 stopped on: Tuesday, 28 April 2020 12:15PM
    Psi4 wall time for execution: 0:07:18.23

*** Psi4 exiting successfully. Buy a developer a beer!
