                               Psi4 1.3.2 release

  ==> Input File <==

--------------------------------------------------------------------------
import numpy as np
set {scf_type pk
basis cc-pvdz
d_convergence 10
gdma_switch   0
gdma_limit    0
gdma_origin   [ 0.0,  0.0,  0.0 ]
}
molecule test {
    units Angstrom
    0 1
    --
    0 1
    C                3.276781623526660    -2.474502879900796     2.260333098619012
    C                2.039781623526660    -1.393502879900795    -1.210666901380988
    C                2.300781623526660    -0.010502879900795    -1.177666901380988
    C                2.388781623526660    -2.199502879900795    -0.106666901380988
    C                2.989781623526660    -1.639502879900796     1.035333098619012
    C                2.924781623526660     0.538497120099204    -0.051666901380988
    C                3.260781623526660    -0.266502879900796     1.038333098619012
    O                1.909781623526660     0.824497120099205    -2.197666901380988
    H                1.561781623526660    -1.826502879900795    -2.077666901380988
    H                2.168781623526660    -3.258502879900795    -0.131666901380988
    H                3.214781623526660     1.573497120099205    -0.048666901380988
    H                1.833781623526660     1.719497120099204    -1.875666901380988
    H                4.250781623526660    -2.186502879900795     2.659333098619012
    H                3.359781623526660    -3.514502879900796     1.940333098619012
    H                3.744781623526660     0.178497120099204     1.899333098619012
    H                2.529481623526660    -2.416692879900795     3.065443098619012
    C               -1.608218376473340    -1.623502879900795    -0.690666901380988
    C               -1.162218376473340    -2.480502879900795     0.505333098619012
    C               -2.059218376473340    -0.209502879900795    -0.318666901380988
    C               -3.386218376473340     0.191497120099204    -0.509666901380988
    C               -1.148218376473340     0.729497120099205     0.202333098619012
    C               -3.797218376473340     1.486497120099204    -0.196666901380988
    C               -1.549218376473340     2.032497120099205     0.514333098619012
    C               -2.874218376473340     2.411497120099205     0.315333098619012
    O               -3.248218376473340     3.683497120099205     0.635333098619012
    H               -0.782218376473340    -1.545502879900795    -1.396666901380988
    H               -2.424218376473340    -2.132502879900795    -1.203666901380988
    H               -0.272218376473340    -2.023502879900795     0.942333098619012
    H               -4.105218376473340    -0.509502879900795    -0.914666901380988
    H               -0.119218376473340     0.435497120099205     0.369333098619012
    H               -4.825218376473340     1.780497120099205    -0.359666901380988
    H               -0.850218376473340     2.745497120099205     0.924333098619012
    H               -4.163218376473340     3.864497120099204     0.388333098619012
    H               -0.925598376473340    -3.510804879900795     0.201213098619012
    H               -1.966568376473340    -2.484822879900796     1.255673098619012

}
e, wfn = energy('scf', return_wfn=True)
gdma(wfn)
dmavals = variable('DMA DISTRIBUTED MULTIPOLES')
charges = np.array(dmavals)
print(charges)
np.save('SSI-040TYR-045TYR-1-dimer.npy', np.array(charges))--------------------------------------------------------------------------

*** tstart() called on ds3
*** at Sun Apr 26 18:57:03 2020

   => Loading Basis Set <=

    Name: CC-PVDZ
    Role: ORBITAL
    Keyword: BASIS
    atoms 1-7, 17-24  entry C          line   138 file /theoryfs2/ds/metcalf/miniconda2/envs/tf2gpu/share/psi4/basis/cc-pvdz.gbs
    atoms 8, 25       entry O          line   198 file /theoryfs2/ds/metcalf/miniconda2/envs/tf2gpu/share/psi4/basis/cc-pvdz.gbs
    atoms 9-16, 26-35 entry H          line    22 file /theoryfs2/ds/metcalf/miniconda2/envs/tf2gpu/share/psi4/basis/cc-pvdz.gbs

         ---------------------------------------------------------
                                   SCF
               by Justin Turney, Rob Parrish, Andy Simmonett
                          and Daniel G. A. Smith
                              RHF Reference
                        1 Threads,    500 MiB Core
         ---------------------------------------------------------

  ==> Geometry <==

    Molecular point group: c1
    Full point group: C1

    Geometry (in Angstrom), charge = 0, multiplicity = 1:

       Center              X                  Y                   Z               Mass
    ------------   -----------------  -----------------  -----------------  -----------------
         C            3.276781623527    -2.474502879901     2.260333098619    12.000000000000
         C            2.039781623527    -1.393502879901    -1.210666901381    12.000000000000
         C            2.300781623527    -0.010502879901    -1.177666901381    12.000000000000
         C            2.388781623527    -2.199502879901    -0.106666901381    12.000000000000
         C            2.989781623527    -1.639502879901     1.035333098619    12.000000000000
         C            2.924781623527     0.538497120099    -0.051666901381    12.000000000000
         C            3.260781623527    -0.266502879901     1.038333098619    12.000000000000
         O            1.909781623527     0.824497120099    -2.197666901381    15.994914619570
         H            1.561781623527    -1.826502879901    -2.077666901381     1.007825032230
         H            2.168781623527    -3.258502879901    -0.131666901381     1.007825032230
         H            3.214781623527     1.573497120099    -0.048666901381     1.007825032230
         H            1.833781623527     1.719497120099    -1.875666901381     1.007825032230
         H            4.250781623527    -2.186502879901     2.659333098619     1.007825032230
         H            3.359781623527    -3.514502879901     1.940333098619     1.007825032230
         H            3.744781623527     0.178497120099     1.899333098619     1.007825032230
         H            2.529481623527    -2.416692879901     3.065443098619     1.007825032230
         C           -1.608218376473    -1.623502879901    -0.690666901381    12.000000000000
         C           -1.162218376473    -2.480502879901     0.505333098619    12.000000000000
         C           -2.059218376473    -0.209502879901    -0.318666901381    12.000000000000
         C           -3.386218376473     0.191497120099    -0.509666901381    12.000000000000
         C           -1.148218376473     0.729497120099     0.202333098619    12.000000000000
         C           -3.797218376473     1.486497120099    -0.196666901381    12.000000000000
         C           -1.549218376473     2.032497120099     0.514333098619    12.000000000000
         C           -2.874218376473     2.411497120099     0.315333098619    12.000000000000
         O           -3.248218376473     3.683497120099     0.635333098619    15.994914619570
         H           -0.782218376473    -1.545502879901    -1.396666901381     1.007825032230
         H           -2.424218376473    -2.132502879901    -1.203666901381     1.007825032230
         H           -0.272218376473    -2.023502879901     0.942333098619     1.007825032230
         H           -4.105218376473    -0.509502879901    -0.914666901381     1.007825032230
         H           -0.119218376473     0.435497120099     0.369333098619     1.007825032230
         H           -4.825218376473     1.780497120099    -0.359666901381     1.007825032230
         H           -0.850218376473     2.745497120099     0.924333098619     1.007825032230
         H           -4.163218376473     3.864497120099     0.388333098619     1.007825032230
         H           -0.925598376473    -3.510804879901     0.201213098619     1.007825032230
         H           -1.966568376473    -2.484822879901     1.255673098619     1.007825032230

  Running in c1 symmetry.

  Rotational constants: A =      0.02319  B =      0.00788  C =      0.00717 [cm^-1]
  Rotational constants: A =    695.30738  B =    236.18610  C =    214.82169 [MHz]
  Nuclear repulsion = 1125.673064365468463

  Charge       = 0
  Multiplicity = 1
  Electrons    = 124
  Nalpha       = 62
  Nbeta        = 62

  ==> Algorithm <==

  SCF Algorithm Type is PK.
  DIIS enabled.
  MOM disabled.
  Fractional occupation disabled.
  Guess Type is SAD.
  Energy threshold   = 1.00e-06
  Density threshold  = 1.00e-10
  Integral threshold = 0.00e+00

  ==> Primary Basis <==

  Basis Set: CC-PVDZ
    Blend: CC-PVDZ
    Number of shells: 156
    Number of basis function: 328
    Number of Cartesian functions: 345
    Spherical Harmonics?: true
    Max angular momentum: 2

  ==> Pre-Iterations <==

   -------------------------------------------------------
    Irrep   Nso     Nmo     Nalpha   Nbeta   Ndocc  Nsocc
   -------------------------------------------------------
     A        328     328       0       0       0       0
   -------------------------------------------------------
    Total     328     328      62      62      62       0
   -------------------------------------------------------

  ==> Integral Setup <==

  Using integral reordering PK algorithm.
  Sizing the integral batches needed.
  Building batch lookup table.
   Calculation information:
      Number of atoms:                  35
      Number of AO shells:             156
      Number of primitives:            464
      Number of atomic orbitals:       345
      Number of basis functions:       328

      Integral cutoff                 1.00e-12
      Number of threads:                 1

	Batch   1 pq = [       0,    9405] index = [             0,44231715] size =     44231715
	Batch   2 pq = [    9405,   13301] index = [      44231715,88464951] size =     44233236
	Batch   3 pq = [   13301,   16290] index = [      88464951,132690195] size =     44225244
	Batch   4 pq = [   16290,   18810] index = [     132690195,176917455] size =     44227260
	Batch   5 pq = [   18810,   21030] index = [     176917455,221140965] size =     44223510
	Batch   6 pq = [   21030,   23037] index = [     221140965,265363203] size =     44222238
	Batch   7 pq = [   23037,   24883] index = [     265363203,309594286] size =     44231083
	Batch   8 pq = [   24883,   26601] index = [     309594286,353819901] size =     44225615
	Batch   9 pq = [   26601,   28214] index = [     353819901,398029005] size =     44209104
	Batch  10 pq = [   28214,   29740] index = [     398029005,442248670] size =     44219665
	Batch  11 pq = [   29740,   31191] index = [     442248670,486454836] size =     44206166
	Batch  12 pq = [   31191,   32578] index = [     486454836,530679331] size =     44224495
	Batch  13 pq = [   32578,   33908] index = [     530679331,574893186] size =     44213855
	Batch  14 pq = [   33908,   35188] index = [     574893186,619115266] size =     44222080
	Batch  15 pq = [   35188,   36423] index = [     619115266,663335676] size =     44220410
	Batch  16 pq = [   36423,   37617] index = [     663335676,707538153] size =     44202477
	Batch  17 pq = [   37617,   38775] index = [     707538153,751769700] size =     44231547
	Batch  18 pq = [   38775,   39899] index = [     751769700,795985050] size =     44215350
	Batch  19 pq = [   39899,   40992] index = [     795985050,840192528] size =     44207478
	Batch  20 pq = [   40992,   42057] index = [     840192528,884416653] size =     44224125
	Batch  21 pq = [   42057,   43095] index = [     884416653,928611060] size =     44194407
	Batch  22 pq = [   43095,   44109] index = [     928611060,972823995] size =     44212935
	Batch  23 pq = [   44109,   45100] index = [     972823995,1017027550] size =     44203555
	Batch  24 pq = [   45100,   46070] index = [    1017027550,1061245485] size =     44217935
	Batch  25 pq = [   46070,   47020] index = [    1061245485,1105463710] size =     44218225
	Batch  26 pq = [   47020,   47951] index = [    1105463710,1149673176] size =     44209466
	Batch  27 pq = [   47951,   48864] index = [    1149673176,1193869680] size =     44196504
	Batch  28 pq = [   48864,   49761] index = [    1193869680,1238103441] size =     44233761
	Batch  29 pq = [   49761,   50642] index = [    1238103441,1282331403] size =     44227962
	Batch  30 pq = [   50642,   51508] index = [    1282331403,1326562786] size =     44231383
	Batch  31 pq = [   51508,   52359] index = [    1326562786,1370758620] size =     44195834
	Batch  32 pq = [   52359,   53197] index = [    1370758620,1414987003] size =     44228383
	Batch  33 pq = [   53197,   53956] index = [    1414987003,1455651946] size =     40664943
  Task number: 132
  Buffer size: 11059200
  Buffer per thread: 2
  We computed 81886261 shell quartets total.
  Whereas there are 74988381 unique shell quartets.
     9.20 percent of shell quartets recomputed by reordering.

  ==> DiskJK: Disk-Based J/K Matrices <==

    J tasked:                  Yes
    K tasked:                  Yes
    wK tasked:                  No
    Memory [MiB]:              375
    Schwarz Cutoff:          1E-12

    OpenMP threads:              1

  Minimum eigenvalue in the overlap matrix is 3.1671241351E-04.
  Using Symmetric Orthogonalization.

  SCF Guess: Superposition of Atomic Densities via on-the-fly atomic UHF.

  ==> Iterations <==

                        Total Energy        Delta E     RMS |[F,P]|

   @RHF iter SAD:  -726.78424775528640   -7.26784e+02   0.00000e+00
   @RHF iter   1:  -727.90769572288355   -1.12345e+00   2.30696e-03 DIIS
   @RHF iter   2:  -728.22408401076018   -3.16388e-01   9.78507e-04 DIIS
   @RHF iter   3:  -728.27408819016989   -5.00042e-02   2.41062e-04 DIIS
   @RHF iter   4:  -728.27860063806372   -4.51245e-03   1.03942e-04 DIIS
   @RHF iter   5:  -728.27928690102772   -6.86263e-04   1.60120e-05 DIIS
   @RHF iter   6:  -728.27931486587704   -2.79648e-05   5.52274e-06 DIIS
   @RHF iter   7:  -728.27931792103595   -3.05516e-06   2.00450e-06 DIIS
   @RHF iter   8:  -728.27931841222403   -4.91188e-07   6.82495e-07 DIIS
   @RHF iter   9:  -728.27931849030438   -7.80803e-08   2.76391e-07 DIIS
   @RHF iter  10:  -728.27931850453263   -1.42282e-08   1.26996e-07 DIIS
   @RHF iter  11:  -728.27931850930474   -4.77212e-09   6.20964e-08 DIIS
   @RHF iter  12:  -728.27931851036647   -1.06172e-09   2.70871e-08 DIIS
   @RHF iter  13:  -728.27931851054734   -1.80876e-10   7.58070e-09 DIIS
   @RHF iter  14:  -728.27931851055848   -1.11413e-11   2.71949e-09 DIIS
   @RHF iter  15:  -728.27931851055655    1.93268e-12   8.85210e-10 DIIS
   @RHF iter  16:  -728.27931851056019   -3.63798e-12   4.16082e-10 DIIS
   @RHF iter  17:  -728.27931851056201   -1.81899e-12   1.83344e-10 DIIS
   @RHF iter  18:  -728.27931851055814    3.86535e-12   8.97867e-11 DIIS
  Energy and wave function converged.

  ==> Post-Iterations <==

    Orbital Energies [Eh]
    ---------------------

    Doubly Occupied:

       1A    -20.583549     2A    -20.582280     3A    -11.305996
       4A    -11.298312     5A    -11.246802     6A    -11.244066
       7A    -11.240831     8A    -11.239782     9A    -11.237690
      10A    -11.236560    11A    -11.235204    12A    -11.231693
      13A    -11.231012    14A    -11.229626    15A    -11.227721
      16A    -11.223580    17A    -11.216281    18A     -1.398175
      19A     -1.397193    20A     -1.149408    21A     -1.142806
      22A     -1.048012    23A     -1.038467    24A     -1.017967
      25A     -1.012230    26A     -0.969497    27A     -0.928259
      28A     -0.857341    29A     -0.844436    30A     -0.832876
      31A     -0.803785    32A     -0.788179    33A     -0.732070
      34A     -0.727405    35A     -0.669051    36A     -0.661734
      37A     -0.645184    38A     -0.641547    39A     -0.615178
      40A     -0.609029    41A     -0.596115    42A     -0.587957
      43A     -0.587159    44A     -0.582553    45A     -0.578712
      46A     -0.570899    47A     -0.563809    48A     -0.555045
      49A     -0.549700    50A     -0.526903    51A     -0.508270
      52A     -0.502206    53A     -0.492845    54A     -0.487401
      55A     -0.470613    56A     -0.469352    57A     -0.465168
      58A     -0.458023    59A     -0.340189    60A     -0.333981
      61A     -0.306438    62A     -0.296623

    Virtual:

      63A      0.121478    64A      0.133580    65A      0.144159
      66A      0.155341    67A      0.177402    68A      0.178902
      69A      0.182053    70A      0.197891    71A      0.205906
      72A      0.218290    73A      0.230690    74A      0.233578
      75A      0.239734    76A      0.251319    77A      0.261390
      78A      0.270250    79A      0.271896    80A      0.286564
      81A      0.289906    82A      0.313589    83A      0.329484
      84A      0.337079    85A      0.355913    86A      0.364680
      87A      0.374990    88A      0.382694    89A      0.418520
      90A      0.422835    91A      0.431502    92A      0.448854
      93A      0.465927    94A      0.477493    95A      0.489645
      96A      0.490512    97A      0.495916    98A      0.505844
      99A      0.522531   100A      0.587624   101A      0.600304
     102A      0.612709   103A      0.623521   104A      0.631473
     105A      0.638218   106A      0.646593   107A      0.656586
     108A      0.670883   109A      0.677030   110A      0.682095
     111A      0.694496   112A      0.698301   113A      0.713359
     114A      0.716104   115A      0.726113   116A      0.729261
     117A      0.736263   118A      0.738570   119A      0.747616
     120A      0.748952   121A      0.760746   122A      0.767703
     123A      0.777273   124A      0.784395   125A      0.790425
     126A      0.806529   127A      0.811197   128A      0.822083
     129A      0.828153   130A      0.840579   131A      0.846670
     132A      0.854170   133A      0.862390   134A      0.867224
     135A      0.874766   136A      0.877151   137A      0.883943
     138A      0.886942   139A      0.896225   140A      0.896698
     141A      0.908072   142A      0.909113   143A      0.917263
     144A      0.925644   145A      0.932511   146A      0.935525
     147A      0.939669   148A      0.943245   149A      0.961104
     150A      0.970121   151A      0.983643   152A      0.993393
     153A      1.009686   154A      1.015598   155A      1.023650
     156A      1.036137   157A      1.041797   158A      1.078133
     159A      1.093261   160A      1.096869   161A      1.126812
     162A      1.133097   163A      1.134368   164A      1.140801
     165A      1.147235   166A      1.166646   167A      1.180964
     168A      1.185051   169A      1.200777   170A      1.227601
     171A      1.233822   172A      1.242672   173A      1.245993
     174A      1.261959   175A      1.264990   176A      1.274785
     177A      1.280140   178A      1.285470   179A      1.291517
     180A      1.297750   181A      1.304199   182A      1.309688
     183A      1.316229   184A      1.322594   185A      1.335741
     186A      1.356235   187A      1.360509   188A      1.374933
     189A      1.383782   190A      1.391625   191A      1.424264
     192A      1.467288   193A      1.483480   194A      1.490987
     195A      1.507249   196A      1.509357   197A      1.523047
     198A      1.550039   199A      1.551529   200A      1.599052
     201A      1.614417   202A      1.619467   203A      1.622651
     204A      1.630881   205A      1.674981   206A      1.685723
     207A      1.699609   208A      1.706275   209A      1.728643
     210A      1.734874   211A      1.738144   212A      1.747219
     213A      1.771288   214A      1.783703   215A      1.799294
     216A      1.802229   217A      1.806636   218A      1.826953
     219A      1.849952   220A      1.863509   221A      1.878541
     222A      1.879274   223A      1.888551   224A      1.893241
     225A      1.896684   226A      1.899715   227A      1.905469
     228A      1.911779   229A      1.917331   230A      1.930407
     231A      1.933381   232A      1.938234   233A      1.946927
     234A      1.950371   235A      1.955256   236A      1.967630
     237A      1.974531   238A      1.976809   239A      1.996689
     240A      2.005923   241A      2.008206   242A      2.014144
     243A      2.028007   244A      2.033357   245A      2.039605
     246A      2.046835   247A      2.054163   248A      2.061716
     249A      2.063780   250A      2.066371   251A      2.073562
     252A      2.090840   253A      2.112030   254A      2.119552
     255A      2.128311   256A      2.135372   257A      2.146901
     258A      2.168758   259A      2.178469   260A      2.193962
     261A      2.202524   262A      2.227014   263A      2.248282
     264A      2.251912   265A      2.266805   266A      2.271120
     267A      2.276371   268A      2.302834   269A      2.305178
     270A      2.316425   271A      2.321658   272A      2.338021
     273A      2.365976   274A      2.377090   275A      2.416343
     276A      2.433732   277A      2.445983   278A      2.456360
     279A      2.469310   280A      2.476337   281A      2.490539
     282A      2.498626   283A      2.522828   284A      2.532421
     285A      2.539531   286A      2.540229   287A      2.571407
     288A      2.579570   289A      2.595630   290A      2.624693
     291A      2.634761   292A      2.645180   293A      2.738835
     294A      2.753228   295A      2.763893   296A      2.782175
     297A      2.789249   298A      2.793096   299A      2.805336
     300A      2.825839   301A      2.840072   302A      2.868380
     303A      2.888561   304A      2.910303   305A      2.922905
     306A      2.954495   307A      2.967287   308A      2.978532
     309A      3.005668   310A      3.017215   311A      3.057665
     312A      3.082896   313A      3.089914   314A      3.157326
     315A      3.248927   316A      3.263615   317A      3.277834
     318A      3.280895   319A      3.347374   320A      3.348973
     321A      3.561778   322A      3.567472   323A      3.648851
     324A      3.672405   325A      3.946623   326A      3.952214
     327A      4.162568   328A      4.190485

    Final Occupation by Irrep:
              A
    DOCC [    62 ]

  @RHF Final Energy:  -728.27931851055814

   => Energetics <=

    Nuclear Repulsion Energy =           1125.6730643654684627
    One-Electron Energy =               -3225.5632178993250818
    Two-Electron Energy =                1371.6108350232982502
    Total Energy =                       -728.2793185105581415

Computation Completed

Properties will be evaluated at   0.000000,   0.000000,   0.000000 [a0]

Properties computed using the SCF density matrix

  Nuclear Dipole Moment: [e a0]
     X:     2.0842      Y:   -12.2703      Z:     5.2773

  Electronic Dipole Moment: [e a0]
     X:    -2.3168      Y:    12.2627      Z:    -4.9966

  Dipole Moment: [e a0]
     X:    -0.2327      Y:    -0.0076      Z:     0.2807     Total:     0.3647

  Dipole Moment: [D]
     X:    -0.5914      Y:    -0.0193      Z:     0.7134     Total:     0.9269

*** tstop() called on ds3 at Sun Apr 26 20:07:55 2020
Module time:
	user time   =     719.05 seconds =      11.98 minutes
	system time =     246.94 seconds =       4.12 minutes
	total time  =       4252 seconds =      70.87 minutes
Total time:
	user time   =     719.05 seconds =      11.98 minutes
	system time =     246.94 seconds =       4.12 minutes
	total time  =       4252 seconds =      70.87 minutes
                                     G D M A

                                 by Anthony Stone

                           version 2.2.06, 22 June 2011

               Distributed Multipoles from Gaussian wavefunctions

Starting at 20:7:55 on 26 Apr 2020

Using SCF density matrix from file ./SSI/SSI-040TYR-045TYR-1-dimer.test.26778.fchk

                         Distributed Multipole Analysis

Standard DMA

Positions and radii in angstrom
Multipole moments in atomic units, ea_0^k for rank k

C          x =  3.276782  y = -2.474503  z =  2.260333 angstrom
           Maximum rank =  0   Radius =  0.650 angstrom
                   Q00  =  -0.198517

C          x =  2.039782  y = -1.393503  z = -1.210667 angstrom
           Maximum rank =  0   Radius =  0.650 angstrom
                   Q00  =  -0.125157

C          x =  2.300782  y = -0.010503  z = -1.177667 angstrom
           Maximum rank =  0   Radius =  0.650 angstrom
                   Q00  =   0.252238

C          x =  2.388782  y = -2.199503  z = -0.106667 angstrom
           Maximum rank =  0   Radius =  0.650 angstrom
                   Q00  =  -0.022729

C          x =  2.989782  y = -1.639503  z =  1.035333 angstrom
           Maximum rank =  0   Radius =  0.650 angstrom
                   Q00  =  -0.133561

C          x =  2.924782  y =  0.538497  z = -0.051667 angstrom
           Maximum rank =  0   Radius =  0.650 angstrom
                   Q00  =  -0.166204

C          x =  3.260782  y = -0.266503  z =  1.038333 angstrom
           Maximum rank =  0   Radius =  0.650 angstrom
                   Q00  =   0.033049

O          x =  1.909782  y =  0.824497  z = -2.197667 angstrom
           Maximum rank =  0   Radius =  0.650 angstrom
                   Q00  =  -0.642197

H          x =  1.561782  y = -1.826503  z = -2.077667 angstrom
           Maximum rank =  0   Radius =  0.325 angstrom
                   Q00  =   0.086971

H          x =  2.168782  y = -3.258503  z = -0.131667 angstrom
           Maximum rank =  0   Radius =  0.325 angstrom
                   Q00  =   0.070113

H          x =  3.214782  y =  1.573497  z = -0.048667 angstrom
           Maximum rank =  0   Radius =  0.325 angstrom
                   Q00  =   0.074931

H          x =  1.833782  y =  1.719497  z = -1.875667 angstrom
           Maximum rank =  0   Radius =  0.325 angstrom
                   Q00  =   0.408461

H          x =  4.250782  y = -2.186503  z =  2.659333 angstrom
           Maximum rank =  0   Radius =  0.325 angstrom
                   Q00  =   0.097070

H          x =  3.359782  y = -3.514503  z =  1.940333 angstrom
           Maximum rank =  0   Radius =  0.325 angstrom
                   Q00  =   0.095696

H          x =  3.744782  y =  0.178497  z =  1.899333 angstrom
           Maximum rank =  0   Radius =  0.325 angstrom
                   Q00  =   0.070713

H          x =  2.529482  y = -2.416693  z =  3.065443 angstrom
           Maximum rank =  0   Radius =  0.325 angstrom
                   Q00  =   0.103410

C          x = -1.608218  y = -1.623503  z = -0.690667 angstrom
           Maximum rank =  0   Radius =  0.650 angstrom
                   Q00  =  -0.049314

C          x = -1.162218  y = -2.480503  z =  0.505333 angstrom
           Maximum rank =  0   Radius =  0.650 angstrom
                   Q00  =  -0.230950

C          x = -2.059218  y = -0.209503  z = -0.318667 angstrom
           Maximum rank =  0   Radius =  0.650 angstrom
                   Q00  =  -0.149240

C          x = -3.386218  y =  0.191497  z = -0.509667 angstrom
           Maximum rank =  0   Radius =  0.650 angstrom
                   Q00  =  -0.011010

C          x = -1.148218  y =  0.729497  z =  0.202333 angstrom
           Maximum rank =  0   Radius =  0.650 angstrom
                   Q00  =   0.018749

C          x = -3.797218  y =  1.486497  z = -0.196667 angstrom
           Maximum rank =  0   Radius =  0.650 angstrom
                   Q00  =  -0.200492

C          x = -1.549218  y =  2.032497  z =  0.514333 angstrom
           Maximum rank =  0   Radius =  0.650 angstrom
                   Q00  =  -0.112606

C          x = -2.874218  y =  2.411497  z =  0.315333 angstrom
           Maximum rank =  0   Radius =  0.650 angstrom
                   Q00  =   0.316118

O          x = -3.248218  y =  3.683497  z =  0.635333 angstrom
           Maximum rank =  0   Radius =  0.650 angstrom
                   Q00  =  -0.667243

H          x = -0.782218  y = -1.545503  z = -1.396667 angstrom
           Maximum rank =  0   Radius =  0.325 angstrom
                   Q00  =   0.077447

H          x = -2.424218  y = -2.132503  z = -1.203667 angstrom
           Maximum rank =  0   Radius =  0.325 angstrom
                   Q00  =   0.058093

H          x = -0.272218  y = -2.023503  z =  0.942333 angstrom
           Maximum rank =  0   Radius =  0.325 angstrom
                   Q00  =   0.091132

H          x = -4.105218  y = -0.509503  z = -0.914667 angstrom
           Maximum rank =  0   Radius =  0.325 angstrom
                   Q00  =   0.069760

H          x = -0.119218  y =  0.435497  z =  0.369333 angstrom
           Maximum rank =  0   Radius =  0.325 angstrom
                   Q00  =   0.075298

H          x = -4.825218  y =  1.780497  z = -0.359667 angstrom
           Maximum rank =  0   Radius =  0.325 angstrom
                   Q00  =   0.071465

H          x = -0.850218  y =  2.745497  z =  0.924333 angstrom
           Maximum rank =  0   Radius =  0.325 angstrom
                   Q00  =   0.073582

H          x = -4.163218  y =  3.864497  z =  0.388333 angstrom
           Maximum rank =  0   Radius =  0.325 angstrom
                   Q00  =   0.406189

H          x = -0.925598  y = -3.510805  z =  0.201213 angstrom
           Maximum rank =  0   Radius =  0.325 angstrom
                   Q00  =   0.079441

H          x = -1.966568  y = -2.484823  z =  1.255673 angstrom
           Maximum rank =  0   Radius =  0.325 angstrom
                   Q00  =   0.079292

Total multipoles referred to origin at
           x =   0.000000,  y =    0.000000,  z =    0.000000 angstrom
                   Q00  =  -0.000000

Finished at 20:7:55 on 26 Apr 2020

  DMA results are available in the Python driver through the
	  variable('DMA DISTRIBUTED MULTIPOLES')
  and
	  variable('DMA TOTAL MULTIPOLES')
  commands.

    Psi4 stopped on: Sunday, 26 April 2020 08:07PM
    Psi4 wall time for execution: 1:10:51.99

*** Psi4 exiting successfully. Buy a developer a beer!
