                               Psi4 1.3.2 release

  ==> Input File <==

--------------------------------------------------------------------------
import numpy as np
set {scf_type pk
basis cc-pvdz
d_convergence 10
gdma_switch   0
gdma_limit    0
gdma_origin   [ 0.0,  0.0,  0.0 ]
}
molecule test {
    units Angstrom
    0 1
    --
    0 1
    C                1.044228140176100     1.941898064108937     0.963360476777337
    C                2.487228140176100     2.147898064108936     1.454360476777338
    C                0.034228140176100     2.452898064108937     2.011360476777337
    C                0.762228140176100     2.606898064108937    -0.385639523222663
    H                0.876228140176100     0.872898064108937     0.838360476777337
    H                2.653228140176100     3.214898064108937     1.568360476777337
    H                0.215228140176100     3.507898064108936     2.221360476777338
    H               -0.979771859823900     2.337898064108937     1.627360476777338
    H                0.107228140176100     1.877898064108937     2.934360476777337
    H                1.379228140176100     2.154898064108937    -1.158639523222662
    H               -0.284771859823900     2.463898064108937    -0.644639523222662
    H                0.991228140176100     3.667898064108936    -0.322639523222663
    H                3.221448140176100     1.719412064108937     0.756280476777337
    H                2.649078140176100     1.651515064108937     2.422560476777338
    C                0.546228140176100    -2.913101935891063     0.890360476777337
    C               -1.152771859823900    -1.104101935891063     0.438360476777338
    C               -0.208771859823900    -2.006101935891063    -0.059639523222663
    C               -1.871771859823900    -0.269101935891063    -0.419639523222663
    C                0.036228140176100    -2.072101935891063    -1.437639523222663
    C               -1.608771859823900    -0.358101935891063    -1.778639523222662
    C               -0.665771859823900    -1.233101935891063    -2.302639523222662
    H               -1.337771859823900    -1.051101935891063     1.502360476777338
    H               -2.606771859823900     0.425898064108937    -0.036639523222663
    H                0.450228140176100    -3.944101935891064     0.546360476777337
    H                0.075228140176100    -2.856101935891063     1.873360476777338
    H                0.740228140176100    -2.784101935891063    -1.839639523222663
    H               -2.146771859823900     0.279898064108937    -2.459639523222663
    H               -0.498771859823900    -1.287101935891063    -3.368639523222663
    H                1.610268140176100    -2.654049935891063     0.993840476777337

}
e, wfn = energy('scf', return_wfn=True)
gdma(wfn)
dmavals = variable('DMA DISTRIBUTED MULTIPOLES')
charges = np.array(dmavals)
print(charges)
np.save('SSI-028VAL-058PHE-1-dimer.npy', np.array(charges))--------------------------------------------------------------------------

*** tstart() called on ds3
*** at Tue Apr 28 12:35:33 2020

   => Loading Basis Set <=

    Name: CC-PVDZ
    Role: ORBITAL
    Keyword: BASIS
    atoms 1-4, 15-21  entry C          line   138 file /theoryfs2/ds/metcalf/miniconda2/envs/tf2gpu/share/psi4/basis/cc-pvdz.gbs
    atoms 5-14, 22-29 entry H          line    22 file /theoryfs2/ds/metcalf/miniconda2/envs/tf2gpu/share/psi4/basis/cc-pvdz.gbs

         ---------------------------------------------------------
                                   SCF
               by Justin Turney, Rob Parrish, Andy Simmonett
                          and Daniel G. A. Smith
                              RHF Reference
                        1 Threads,    500 MiB Core
         ---------------------------------------------------------

  ==> Geometry <==

    Molecular point group: c1
    Full point group: C1

    Geometry (in Angstrom), charge = 0, multiplicity = 1:

       Center              X                  Y                   Z               Mass
    ------------   -----------------  -----------------  -----------------  -----------------
         C            1.044228140176     1.941898064109     0.963360476777    12.000000000000
         C            2.487228140176     2.147898064109     1.454360476777    12.000000000000
         C            0.034228140176     2.452898064109     2.011360476777    12.000000000000
         C            0.762228140176     2.606898064109    -0.385639523223    12.000000000000
         H            0.876228140176     0.872898064109     0.838360476777     1.007825032230
         H            2.653228140176     3.214898064109     1.568360476777     1.007825032230
         H            0.215228140176     3.507898064109     2.221360476777     1.007825032230
         H           -0.979771859824     2.337898064109     1.627360476777     1.007825032230
         H            0.107228140176     1.877898064109     2.934360476777     1.007825032230
         H            1.379228140176     2.154898064109    -1.158639523223     1.007825032230
         H           -0.284771859824     2.463898064109    -0.644639523223     1.007825032230
         H            0.991228140176     3.667898064109    -0.322639523223     1.007825032230
         H            3.221448140176     1.719412064109     0.756280476777     1.007825032230
         H            2.649078140176     1.651515064109     2.422560476777     1.007825032230
         C            0.546228140176    -2.913101935891     0.890360476777    12.000000000000
         C           -1.152771859824    -1.104101935891     0.438360476777    12.000000000000
         C           -0.208771859824    -2.006101935891    -0.059639523223    12.000000000000
         C           -1.871771859824    -0.269101935891    -0.419639523223    12.000000000000
         C            0.036228140176    -2.072101935891    -1.437639523223    12.000000000000
         C           -1.608771859824    -0.358101935891    -1.778639523223    12.000000000000
         C           -0.665771859824    -1.233101935891    -2.302639523223    12.000000000000
         H           -1.337771859824    -1.051101935891     1.502360476777     1.007825032230
         H           -2.606771859824     0.425898064109    -0.036639523223     1.007825032230
         H            0.450228140176    -3.944101935891     0.546360476777     1.007825032230
         H            0.075228140176    -2.856101935891     1.873360476777     1.007825032230
         H            0.740228140176    -2.784101935891    -1.839639523223     1.007825032230
         H           -2.146771859824     0.279898064109    -2.459639523223     1.007825032230
         H           -0.498771859824    -1.287101935891    -3.368639523223     1.007825032230
         H            1.610268140176    -2.654049935891     0.993840476777     1.007825032230

  Running in c1 symmetry.

  Rotational constants: A =      0.04516  B =      0.01931  C =      0.01702 [cm^-1]
  Rotational constants: A =   1353.95552  B =    579.02311  C =    510.35738 [MHz]
  Nuclear repulsion =  588.568301632740372

  Charge       = 0
  Multiplicity = 1
  Electrons    = 84
  Nalpha       = 42
  Nbeta        = 42

  ==> Algorithm <==

  SCF Algorithm Type is PK.
  DIIS enabled.
  MOM disabled.
  Fractional occupation disabled.
  Guess Type is SAD.
  Energy threshold   = 1.00e-06
  Density threshold  = 1.00e-10
  Integral threshold = 0.00e+00

  ==> Primary Basis <==

  Basis Set: CC-PVDZ
    Blend: CC-PVDZ
    Number of shells: 120
    Number of basis function: 244
    Number of Cartesian functions: 255
    Spherical Harmonics?: true
    Max angular momentum: 2

  ==> Pre-Iterations <==

   -------------------------------------------------------
    Irrep   Nso     Nmo     Nalpha   Nbeta   Ndocc  Nsocc
   -------------------------------------------------------
     A        244     244       0       0       0       0
   -------------------------------------------------------
    Total     244     244      42      42      42       0
   -------------------------------------------------------

  ==> Integral Setup <==

  Using integral reordering PK algorithm.
  Sizing the integral batches needed.
  Building batch lookup table.
   Calculation information:
      Number of atoms:                  29
      Number of AO shells:             120
      Number of primitives:            332
      Number of atomic orbitals:       255
      Number of basis functions:       244

      Integral cutoff                 1.00e-12
      Number of threads:                 1

	Batch   1 pq = [       0,    9405] index = [             0,44231715] size =     44231715
	Batch   2 pq = [    9405,   13301] index = [      44231715,88464951] size =     44233236
	Batch   3 pq = [   13301,   16290] index = [      88464951,132690195] size =     44225244
	Batch   4 pq = [   16290,   18810] index = [     132690195,176917455] size =     44227260
	Batch   5 pq = [   18810,   21030] index = [     176917455,221140965] size =     44223510
	Batch   6 pq = [   21030,   23037] index = [     221140965,265363203] size =     44222238
	Batch   7 pq = [   23037,   24883] index = [     265363203,309594286] size =     44231083
	Batch   8 pq = [   24883,   26601] index = [     309594286,353819901] size =     44225615
	Batch   9 pq = [   26601,   28214] index = [     353819901,398029005] size =     44209104
	Batch  10 pq = [   28214,   29740] index = [     398029005,442248670] size =     44219665
	Batch  11 pq = [   29740,   29890] index = [     442248670,446720995] size =      4472325
  Task number: 41
  Buffer size: 11059200
  Buffer per thread: 2
  We computed 27894397 shell quartets total.
  Whereas there are 26357430 unique shell quartets.
     5.83 percent of shell quartets recomputed by reordering.

  ==> DiskJK: Disk-Based J/K Matrices <==

    J tasked:                  Yes
    K tasked:                  Yes
    wK tasked:                  No
    Memory [MiB]:              375
    Schwarz Cutoff:          1E-12

    OpenMP threads:              1

  Minimum eigenvalue in the overlap matrix is 3.1531439465E-04.
  Using Symmetric Orthogonalization.

  SCF Guess: Superposition of Atomic Densities via on-the-fly atomic UHF.

  ==> Iterations <==

                        Total Energy        Delta E     RMS |[F,P]|

   @RHF iter SAD:  -425.86326034279421   -4.25863e+02   0.00000e+00
   @RHF iter   1:  -426.77509182907761   -9.11831e-01   2.64282e-03 DIIS
   @RHF iter   2:  -427.02278007523626   -2.47688e-01   1.12073e-03 DIIS
   @RHF iter   3:  -427.06321607205950   -4.04360e-02   2.45243e-04 DIIS
   @RHF iter   4:  -427.06649732255079   -3.28125e-03   5.78983e-05 DIIS
   @RHF iter   5:  -427.06662647654230   -1.29154e-04   1.33278e-05 DIIS
   @RHF iter   6:  -427.06663415381661   -7.67727e-06   4.08173e-06 DIIS
   @RHF iter   7:  -427.06663488992558   -7.36109e-07   1.33974e-06 DIIS
   @RHF iter   8:  -427.06663500072085   -1.10795e-07   4.20556e-07 DIIS
   @RHF iter   9:  -427.06663502815502   -2.74342e-08   2.09386e-07 DIIS
   @RHF iter  10:  -427.06663503580853   -7.65351e-09   8.93568e-08 DIIS
   @RHF iter  11:  -427.06663503721433   -1.40579e-09   2.98679e-08 DIIS
   @RHF iter  12:  -427.06663503732904   -1.14710e-10   1.13875e-08 DIIS
   @RHF iter  13:  -427.06663503733824   -9.20863e-12   3.97986e-09 DIIS
   @RHF iter  14:  -427.06663503734143   -3.18323e-12   1.17859e-09 DIIS
   @RHF iter  15:  -427.06663503734109    3.41061e-13   5.32288e-10 DIIS
   @RHF iter  16:  -427.06663503734126   -1.70530e-13   2.45413e-10 DIIS
   @RHF iter  17:  -427.06663503734302   -1.76215e-12   1.00345e-10 DIIS
   @RHF iter  18:  -427.06663503734114    1.87583e-12   3.24384e-11 DIIS
  Energy and wave function converged.

  ==> Post-Iterations <==

    Orbital Energies [Eh]
    ---------------------

    Doubly Occupied:

       1A    -11.243397     2A    -11.237570     3A    -11.237022
       4A    -11.233966     5A    -11.233518     6A    -11.231160
       7A    -11.230835     8A    -11.215751     9A    -11.211341
      10A    -11.209344    11A    -11.204641    12A     -1.153027
      13A     -1.071269    14A     -1.043479    15A     -1.014412
      16A     -0.930270    17A     -0.921273    18A     -0.918427
      19A     -0.827252    20A     -0.796181    21A     -0.756340
      22A     -0.691930    23A     -0.633699    24A     -0.631135
      25A     -0.625492    26A     -0.588754    27A     -0.583426
      28A     -0.577123    29A     -0.575440    30A     -0.558394
      31A     -0.534751    32A     -0.531010    33A     -0.530644
      34A     -0.501936    35A     -0.490468    36A     -0.488388
      37A     -0.478861    38A     -0.454905    39A     -0.448626
      40A     -0.446576    41A     -0.333893    42A     -0.322407

    Virtual:

      43A      0.130028    44A      0.140613    45A      0.167123
      46A      0.191513    47A      0.197984    48A      0.209018
      49A      0.227062    50A      0.236301    51A      0.240817
      52A      0.249833    53A      0.256677    54A      0.260418
      55A      0.269830    56A      0.275802    57A      0.287605
      58A      0.297911    59A      0.308976    60A      0.314825
      61A      0.319522    62A      0.339541    63A      0.363498
      64A      0.369607    65A      0.376037    66A      0.410933
      67A      0.415467    68A      0.452510    69A      0.459232
      70A      0.473039    71A      0.498536    72A      0.559919
      73A      0.565364    74A      0.575467    75A      0.593057
      76A      0.613673    77A      0.621709    78A      0.625028
      79A      0.646432    80A      0.677008    81A      0.690237
      82A      0.701957    83A      0.722823    84A      0.724808
      85A      0.740192    86A      0.742361    87A      0.754899
      88A      0.758651    89A      0.772389    90A      0.782230
      91A      0.790679    92A      0.814341    93A      0.817978
      94A      0.830688    95A      0.845682    96A      0.852592
      97A      0.862189    98A      0.863468    99A      0.872665
     100A      0.886681   101A      0.892047   102A      0.893072
     103A      0.895933   104A      0.900299   105A      0.905698
     106A      0.914591   107A      0.920121   108A      0.922386
     109A      0.933431   110A      0.938764   111A      0.950046
     112A      0.954905   113A      0.958951   114A      0.975661
     115A      0.991982   116A      0.998823   117A      1.009042
     118A      1.032896   119A      1.051183   120A      1.071477
     121A      1.125785   122A      1.131744   123A      1.139226
     124A      1.148377   125A      1.151900   126A      1.153381
     127A      1.186414   128A      1.206854   129A      1.241130
     130A      1.245987   131A      1.249134   132A      1.267397
     133A      1.295939   134A      1.309930   135A      1.321347
     136A      1.322272   137A      1.375924   138A      1.408297
     139A      1.420712   140A      1.423581   141A      1.501737
     142A      1.521012   143A      1.542490   144A      1.551470
     145A      1.564649   146A      1.602485   147A      1.660352
     148A      1.667332   149A      1.682614   150A      1.688944
     151A      1.693494   152A      1.701770   153A      1.708688
     154A      1.711761   155A      1.733894   156A      1.743230
     157A      1.749106   158A      1.770957   159A      1.784947
     160A      1.815888   161A      1.847423   162A      1.854981
     163A      1.862036   164A      1.866894   165A      1.888330
     166A      1.897968   167A      1.908380   168A      1.913882
     169A      1.923642   170A      1.931499   171A      1.945759
     172A      1.948901   173A      1.952705   174A      1.962976
     175A      1.963951   176A      1.968582   177A      1.977839
     178A      1.981343   179A      1.985779   180A      2.002652
     181A      2.007504   182A      2.029741   183A      2.039670
     184A      2.052194   185A      2.063699   186A      2.074954
     187A      2.084706   188A      2.113643   189A      2.123250
     190A      2.125883   191A      2.138314   192A      2.146441
     193A      2.155917   194A      2.165503   195A      2.184643
     196A      2.196045   197A      2.244084   198A      2.259141
     199A      2.268854   200A      2.270916   201A      2.287653
     202A      2.294699   203A      2.308789   204A      2.318829
     205A      2.329498   206A      2.339463   207A      2.345871
     208A      2.373209   209A      2.383315   210A      2.446967
     211A      2.470030   212A      2.490227   213A      2.515791
     214A      2.529696   215A      2.589345   216A      2.618806
     217A      2.623753   218A      2.632704   219A      2.709698
     220A      2.728023   221A      2.734803   222A      2.752966
     223A      2.766484   224A      2.768506   225A      2.789928
     226A      2.795574   227A      2.803136   228A      2.807069
     229A      2.808587   230A      2.838109   231A      2.843808
     232A      2.856240   233A      2.862630   234A      2.873444
     235A      2.968658   236A      3.012453   237A      3.027060
     238A      3.027820   239A      3.041675   240A      3.148670
     241A      3.149662   242A      3.198430   243A      3.299728
     244A      3.958794

    Final Occupation by Irrep:
              A
    DOCC [    42 ]

  @RHF Final Energy:  -427.06663503734114

   => Energetics <=

    Nuclear Repulsion Energy =            588.5683016327403720
    One-Electron Energy =               -1743.3732059181977547
    Two-Electron Energy =                 727.7382692481161257
    Total Energy =                       -427.0666350373411433

Computation Completed

Properties will be evaluated at   0.000000,   0.000000,   0.000000 [a0]

Properties computed using the SCF density matrix

  Nuclear Dipole Moment: [e a0]
     X:     6.6694      Y:     8.9982      Z:     6.9880

  Electronic Dipole Moment: [e a0]
     X:    -6.6621      Y:    -9.2298      Z:    -7.0004

  Dipole Moment: [e a0]
     X:     0.0072      Y:    -0.2316      Z:    -0.0124     Total:     0.2321

  Dipole Moment: [D]
     X:     0.0183      Y:    -0.5888      Z:    -0.0315     Total:     0.5899

*** tstop() called on ds3 at Tue Apr 28 12:42:02 2020
Module time:
	user time   =     196.23 seconds =       3.27 minutes
	system time =      73.45 seconds =       1.22 minutes
	total time  =        389 seconds =       6.48 minutes
Total time:
	user time   =     196.23 seconds =       3.27 minutes
	system time =      73.45 seconds =       1.22 minutes
	total time  =        389 seconds =       6.48 minutes
                                     G D M A

                                 by Anthony Stone

                           version 2.2.06, 22 June 2011

               Distributed Multipoles from Gaussian wavefunctions

Starting at 12:42:2 on 28 Apr 2020

Using SCF density matrix from file ./SSI/SSI-028VAL-058PHE-1-dimer.test.15132.fchk

                         Distributed Multipole Analysis

Standard DMA

Positions and radii in angstrom
Multipole moments in atomic units, ea_0^k for rank k

C          x =  1.044228  y =  1.941898  z =  0.963360 angstrom
           Maximum rank =  0   Radius =  0.650 angstrom
                   Q00  =   0.002584

C          x =  2.487228  y =  2.147898  z =  1.454360 angstrom
           Maximum rank =  0   Radius =  0.650 angstrom
                   Q00  =  -0.244056

C          x =  0.034228  y =  2.452898  z =  2.011360 angstrom
           Maximum rank =  0   Radius =  0.650 angstrom
                   Q00  =  -0.248753

C          x =  0.762228  y =  2.606898  z = -0.385640 angstrom
           Maximum rank =  0   Radius =  0.650 angstrom
                   Q00  =  -0.236670

H          x =  0.876228  y =  0.872898  z =  0.838360 angstrom
           Maximum rank =  0   Radius =  0.325 angstrom
                   Q00  =   0.025394

H          x =  2.653228  y =  3.214898  z =  1.568360 angstrom
           Maximum rank =  0   Radius =  0.325 angstrom
                   Q00  =   0.074430

H          x =  0.215228  y =  3.507898  z =  2.221360 angstrom
           Maximum rank =  0   Radius =  0.325 angstrom
                   Q00  =   0.073817

H          x = -0.979772  y =  2.337898  z =  1.627360 angstrom
           Maximum rank =  0   Radius =  0.325 angstrom
                   Q00  =   0.076546

H          x =  0.107228  y =  1.877898  z =  2.934360 angstrom
           Maximum rank =  0   Radius =  0.325 angstrom
                   Q00  =   0.078607

H          x =  1.379228  y =  2.154898  z = -1.158640 angstrom
           Maximum rank =  0   Radius =  0.325 angstrom
                   Q00  =   0.083182

H          x = -0.284772  y =  2.463898  z = -0.644640 angstrom
           Maximum rank =  0   Radius =  0.325 angstrom
                   Q00  =   0.085140

H          x =  0.991228  y =  3.667898  z = -0.322640 angstrom
           Maximum rank =  0   Radius =  0.325 angstrom
                   Q00  =   0.067988

H          x =  3.221448  y =  1.719412  z =  0.756280 angstrom
           Maximum rank =  0   Radius =  0.325 angstrom
                   Q00  =   0.081087

H          x =  2.649078  y =  1.651515  z =  2.422560 angstrom
           Maximum rank =  0   Radius =  0.325 angstrom
                   Q00  =   0.078610

C          x =  0.546228  y = -2.913102  z =  0.890360 angstrom
           Maximum rank =  0   Radius =  0.650 angstrom
                   Q00  =  -0.199714

C          x = -1.152772  y = -1.104102  z =  0.438360 angstrom
           Maximum rank =  0   Radius =  0.650 angstrom
                   Q00  =  -0.089851

C          x = -0.208772  y = -2.006102  z = -0.059640 angstrom
           Maximum rank =  0   Radius =  0.650 angstrom
                   Q00  =  -0.087109

C          x = -1.871772  y = -0.269102  z = -0.419640 angstrom
           Maximum rank =  0   Radius =  0.650 angstrom
                   Q00  =  -0.075627

C          x =  0.036228  y = -2.072102  z = -1.437640 angstrom
           Maximum rank =  0   Radius =  0.650 angstrom
                   Q00  =  -0.088752

C          x = -1.608772  y = -0.358102  z = -1.778640 angstrom
           Maximum rank =  0   Radius =  0.650 angstrom
                   Q00  =   0.008403

C          x = -0.665772  y = -1.233102  z = -2.302640 angstrom
           Maximum rank =  0   Radius =  0.650 angstrom
                   Q00  =  -0.076510

H          x = -1.337772  y = -1.051102  z =  1.502360 angstrom
           Maximum rank =  0   Radius =  0.325 angstrom
                   Q00  =   0.060107

H          x = -2.606772  y =  0.425898  z = -0.036640 angstrom
           Maximum rank =  0   Radius =  0.325 angstrom
                   Q00  =   0.068863

H          x =  0.450228  y = -3.944102  z =  0.546360 angstrom
           Maximum rank =  0   Radius =  0.325 angstrom
                   Q00  =   0.100008

H          x =  0.075228  y = -2.856102  z =  1.873360 angstrom
           Maximum rank =  0   Radius =  0.325 angstrom
                   Q00  =   0.095888

H          x =  0.740228  y = -2.784102  z = -1.839640 angstrom
           Maximum rank =  0   Radius =  0.325 angstrom
                   Q00  =   0.059232

H          x = -2.146772  y =  0.279898  z = -2.459640 angstrom
           Maximum rank =  0   Radius =  0.325 angstrom
                   Q00  =   0.057005

H          x = -0.498772  y = -1.287102  z = -3.368640 angstrom
           Maximum rank =  0   Radius =  0.325 angstrom
                   Q00  =   0.066636

H          x =  1.610268  y = -2.654050  z =  0.993840 angstrom
           Maximum rank =  0   Radius =  0.325 angstrom
                   Q00  =   0.103516

Total multipoles referred to origin at
           x =   0.000000,  y =    0.000000,  z =    0.000000 angstrom
                   Q00  =  -0.000000

Finished at 12:42:2 on 28 Apr 2020

  DMA results are available in the Python driver through the
	  variable('DMA DISTRIBUTED MULTIPOLES')
  and
	  variable('DMA TOTAL MULTIPOLES')
  commands.

    Psi4 stopped on: Tuesday, 28 April 2020 12:42PM
    Psi4 wall time for execution: 0:06:28.62

*** Psi4 exiting successfully. Buy a developer a beer!
