                               Psi4 1.3.2 release

  ==> Input File <==

--------------------------------------------------------------------------
import numpy as np
set {scf_type pk
basis cc-pvdz
d_convergence 10
gdma_switch   0
gdma_limit    0
gdma_origin   [ 0.0,  0.0,  0.0 ]
}
molecule test {
    units Angstrom
    0 1
    --
    0 1
    C               -1.392799697228518    -0.843588482851290    -2.963583779818354
    C               -2.569799697228517     0.109411517148710    -3.230583779818354
    C               -0.100799697228518    -0.538588482851290    -3.711583779818354
    H               -1.178799697228518    -0.777588482851290    -1.898583779818354
    H               -1.698799697228518    -1.871588482851290    -3.158583779818354
    H               -3.329799697228518    -0.101588482851290    -2.476583779818354
    H                0.149200302771482     0.520411517148710    -3.657583779818354
    H                0.696200302771482    -1.069588482851290    -3.188583779818354
    H               -3.015999697228517    -0.075558482851290    -4.218863779818354
    H               -2.257489697228518     1.153771517148710    -3.083023779818354
    H               -0.089979697228518    -0.886858482851290    -4.754943779818354
    C               -1.153799697228518     1.317411517148710     2.825416220181646
    C                0.898200302771482    -0.148588482851290    -0.039583779818354
    C               -0.116799697228518     0.503411517148710     0.665416220181646
    C                1.995200302771482    -0.663588482851290     0.646416220181646
    C               -0.033799697228518     0.647411517148710     2.054416220181646
    C                2.088200302771482    -0.525588482851290     2.027416220181646
    C                1.080200302771482     0.128411517148710     2.729416220181646
    H                0.847200302771482    -0.249588482851290    -1.110583779818354
    H               -0.973799697228518     0.888411517148710     0.132416220181646
    H                2.763200302771482    -1.177588482851290     0.100416220181646
    H                2.942200302771483    -0.934588482851290     2.544416220181646
    H               -1.714799697228518     1.957411517148710     2.143416220181646
    H               -0.722799697228518     1.960411517148710     3.594416220181647
    H                1.168200302771482     0.231411517148710     3.802416220181646
    H               -1.847309697228518     0.598031517148710     3.285356220181646

}
e, wfn = energy('scf', return_wfn=True)
gdma(wfn)
dmavals = variable('DMA DISTRIBUTED MULTIPOLES')
charges = np.array(dmavals)
print(charges)
np.save('SSI-030GLU-038PHE-1-dimer.npy', np.array(charges))--------------------------------------------------------------------------

*** tstart() called on ds3
*** at Mon Apr 27 00:00:43 2020

   => Loading Basis Set <=

    Name: CC-PVDZ
    Role: ORBITAL
    Keyword: BASIS
    atoms 1-3, 12-18  entry C          line   138 file /theoryfs2/ds/metcalf/miniconda2/envs/tf2gpu/share/psi4/basis/cc-pvdz.gbs
    atoms 4-11, 19-26 entry H          line    22 file /theoryfs2/ds/metcalf/miniconda2/envs/tf2gpu/share/psi4/basis/cc-pvdz.gbs

         ---------------------------------------------------------
                                   SCF
               by Justin Turney, Rob Parrish, Andy Simmonett
                          and Daniel G. A. Smith
                              RHF Reference
                        1 Threads,    500 MiB Core
         ---------------------------------------------------------

  ==> Geometry <==

    Molecular point group: c1
    Full point group: C1

    Geometry (in Angstrom), charge = 0, multiplicity = 1:

       Center              X                  Y                   Z               Mass
    ------------   -----------------  -----------------  -----------------  -----------------
         C           -1.392799697229    -0.843588482851    -2.963583779818    12.000000000000
         C           -2.569799697229     0.109411517149    -3.230583779818    12.000000000000
         C           -0.100799697229    -0.538588482851    -3.711583779818    12.000000000000
         H           -1.178799697229    -0.777588482851    -1.898583779818     1.007825032230
         H           -1.698799697229    -1.871588482851    -3.158583779818     1.007825032230
         H           -3.329799697229    -0.101588482851    -2.476583779818     1.007825032230
         H            0.149200302771     0.520411517149    -3.657583779818     1.007825032230
         H            0.696200302771    -1.069588482851    -3.188583779818     1.007825032230
         H           -3.015999697229    -0.075558482851    -4.218863779818     1.007825032230
         H           -2.257489697229     1.153771517149    -3.083023779818     1.007825032230
         H           -0.089979697229    -0.886858482851    -4.754943779818     1.007825032230
         C           -1.153799697229     1.317411517149     2.825416220182    12.000000000000
         C            0.898200302771    -0.148588482851    -0.039583779818    12.000000000000
         C           -0.116799697229     0.503411517149     0.665416220182    12.000000000000
         C            1.995200302771    -0.663588482851     0.646416220182    12.000000000000
         C           -0.033799697229     0.647411517149     2.054416220182    12.000000000000
         C            2.088200302771    -0.525588482851     2.027416220182    12.000000000000
         C            1.080200302771     0.128411517149     2.729416220182    12.000000000000
         H            0.847200302771    -0.249588482851    -1.110583779818     1.007825032230
         H           -0.973799697229     0.888411517149     0.132416220182     1.007825032230
         H            2.763200302771    -1.177588482851     0.100416220182     1.007825032230
         H            2.942200302771    -0.934588482851     2.544416220182     1.007825032230
         H           -1.714799697229     1.957411517149     2.143416220182     1.007825032230
         H           -0.722799697229     1.960411517149     3.594416220182     1.007825032230
         H            1.168200302771     0.231411517149     3.802416220182     1.007825032230
         H           -1.847309697229     0.598031517149     3.285356220182     1.007825032230

  Running in c1 symmetry.

  Rotational constants: A =      0.06443  B =      0.01758  C =      0.01418 [cm^-1]
  Rotational constants: A =   1931.49029  B =    526.92556  C =    425.19792 [MHz]
  Nuclear repulsion =  479.127910946903853

  Charge       = 0
  Multiplicity = 1
  Electrons    = 76
  Nalpha       = 38
  Nbeta        = 38

  ==> Algorithm <==

  SCF Algorithm Type is PK.
  DIIS enabled.
  MOM disabled.
  Fractional occupation disabled.
  Guess Type is SAD.
  Energy threshold   = 1.00e-06
  Density threshold  = 1.00e-10
  Integral threshold = 0.00e+00

  ==> Primary Basis <==

  Basis Set: CC-PVDZ
    Blend: CC-PVDZ
    Number of shells: 108
    Number of basis function: 220
    Number of Cartesian functions: 230
    Spherical Harmonics?: true
    Max angular momentum: 2

  ==> Pre-Iterations <==

   -------------------------------------------------------
    Irrep   Nso     Nmo     Nalpha   Nbeta   Ndocc  Nsocc
   -------------------------------------------------------
     A        220     220       0       0       0       0
   -------------------------------------------------------
    Total     220     220      38      38      38       0
   -------------------------------------------------------

  ==> Integral Setup <==

  Using integral reordering PK algorithm.
  Sizing the integral batches needed.
  Building batch lookup table.
   Calculation information:
      Number of atoms:                  26
      Number of AO shells:             108
      Number of primitives:            300
      Number of atomic orbitals:       230
      Number of basis functions:       220

      Integral cutoff                 1.00e-12
      Number of threads:                 1

	Batch   1 pq = [       0,    9405] index = [             0,44231715] size =     44231715
	Batch   2 pq = [    9405,   13301] index = [      44231715,88464951] size =     44233236
	Batch   3 pq = [   13301,   16290] index = [      88464951,132690195] size =     44225244
	Batch   4 pq = [   16290,   18810] index = [     132690195,176917455] size =     44227260
	Batch   5 pq = [   18810,   21030] index = [     176917455,221140965] size =     44223510
	Batch   6 pq = [   21030,   23037] index = [     221140965,265363203] size =     44222238
	Batch   7 pq = [   23037,   24310] index = [     265363203,295500205] size =     30137002
  Task number: 27
  Buffer size: 11059200
  Buffer per thread: 2
  We computed 14431048 shell quartets total.
  Whereas there are 17325441 unique shell quartets.

  ==> DiskJK: Disk-Based J/K Matrices <==

    J tasked:                  Yes
    K tasked:                  Yes
    wK tasked:                  No
    Memory [MiB]:              375
    Schwarz Cutoff:          1E-12

    OpenMP threads:              1

  Minimum eigenvalue in the overlap matrix is 3.0130049963E-04.
  Using Symmetric Orthogonalization.

  SCF Guess: Superposition of Atomic Densities via on-the-fly atomic UHF.

  ==> Iterations <==

                        Total Energy        Delta E     RMS |[F,P]|

   @RHF iter SAD:  -386.84743718964029   -3.86847e+02   0.00000e+00
   @RHF iter   1:  -387.77153461456231   -9.24097e-01   2.73091e-03 DIIS
   @RHF iter   2:  -387.98915287193302   -2.17618e-01   1.13467e-03 DIIS
   @RHF iter   3:  -388.02316137895235   -3.40085e-02   2.47637e-04 DIIS
   @RHF iter   4:  -388.02602778884187   -2.86641e-03   4.83091e-05 DIIS
   @RHF iter   5:  -388.02610685338141   -7.90645e-05   1.51788e-05 DIIS
   @RHF iter   6:  -388.02611417081135   -7.31743e-06   4.41807e-06 DIIS
   @RHF iter   7:  -388.02611486221821   -6.91407e-07   1.23408e-06 DIIS
   @RHF iter   8:  -388.02611492189521   -5.96770e-08   2.76383e-07 DIIS
   @RHF iter   9:  -388.02611492832040   -6.42518e-09   1.05495e-07 DIIS
   @RHF iter  10:  -388.02611492952326   -1.20286e-09   5.02965e-08 DIIS
   @RHF iter  11:  -388.02611492988422   -3.60956e-10   2.01321e-08 DIIS
   @RHF iter  12:  -388.02611492995885   -7.46354e-11   7.82462e-09 DIIS
   @RHF iter  13:  -388.02611492996965   -1.08002e-11   3.33104e-09 DIIS
   @RHF iter  14:  -388.02611492996908    5.68434e-13   8.46752e-10 DIIS
   @RHF iter  15:  -388.02611492996789    1.19371e-12   2.88769e-10 DIIS
   @RHF iter  16:  -388.02611492996783    5.68434e-14   7.98627e-11 DIIS
  Energy and wave function converged.

  ==> Post-Iterations <==

    Orbital Energies [Eh]
    ---------------------

    Doubly Occupied:

       1A    -11.243030     2A    -11.235188     3A    -11.234556
       4A    -11.231898     5A    -11.231681     6A    -11.230476
       7A    -11.229648     8A    -11.220687     9A    -11.219234
      10A    -11.218222    11A     -1.150203    12A     -1.053125
      13A     -1.041936    14A     -1.011140    15A     -0.930396
      16A     -0.929357    17A     -0.824501    18A     -0.797806
      19A     -0.794212    20A     -0.691482    21A     -0.635117
      22A     -0.629402    23A     -0.625269    24A     -0.594249
      25A     -0.580193    26A     -0.576428    27A     -0.560777
      28A     -0.550348    29A     -0.540722    30A     -0.534712
      31A     -0.487167    32A     -0.484146    33A     -0.480694
      34A     -0.474521    35A     -0.470480    36A     -0.462923
      37A     -0.331769    38A     -0.321109

    Virtual:

      39A      0.134567    40A      0.139540    41A      0.166189
      42A      0.194756    43A      0.199289    44A      0.219873
      45A      0.225458    46A      0.232303    47A      0.249163
      48A      0.253453    49A      0.260363    50A      0.271123
      51A      0.276168    52A      0.288242    53A      0.290281
      54A      0.300071    55A      0.329380    56A      0.334967
      57A      0.364161    58A      0.368269    59A      0.393186
      60A      0.429544    61A      0.454346    62A      0.466868
      63A      0.478744    64A      0.501924    65A      0.563386
      66A      0.574379    67A      0.595641    68A      0.608477
      69A      0.627624    70A      0.634017    71A      0.641203
      72A      0.674597    73A      0.690498    74A      0.697558
      75A      0.712935    76A      0.721311    77A      0.738660
      78A      0.743657    79A      0.746826    80A      0.758069
      81A      0.764996    82A      0.773204    83A      0.780062
      84A      0.794352    85A      0.807726    86A      0.837722
      87A      0.844446    88A      0.862536    89A      0.868939
      90A      0.876267    91A      0.879448    92A      0.882729
      93A      0.887737    94A      0.895166    95A      0.903803
      96A      0.909386    97A      0.910382    98A      0.918037
      99A      0.924578   100A      0.934948   101A      0.944755
     102A      0.951632   103A      0.965487   104A      0.989946
     105A      0.998712   106A      1.015418   107A      1.073720
     108A      1.089829   109A      1.115847   110A      1.122863
     111A      1.140024   112A      1.147462   113A      1.161967
     114A      1.179812   115A      1.196526   116A      1.231497
     117A      1.247573   118A      1.251978   119A      1.266292
     120A      1.284080   121A      1.305914   122A      1.317404
     123A      1.321369   124A      1.337265   125A      1.391645
     126A      1.421953   127A      1.448384   128A      1.468751
     129A      1.498306   130A      1.517742   131A      1.555194
     132A      1.562629   133A      1.615329   134A      1.652653
     135A      1.672778   136A      1.677770   137A      1.688577
     138A      1.701856   139A      1.713376   140A      1.736889
     141A      1.744112   142A      1.758762   143A      1.786136
     144A      1.808520   145A      1.846639   146A      1.855041
     147A      1.859653   148A      1.870791   149A      1.891137
     150A      1.893843   151A      1.906698   152A      1.909256
     153A      1.914903   154A      1.925479   155A      1.929327
     156A      1.941606   157A      1.948721   158A      1.962072
     159A      1.969126   160A      1.974666   161A      1.977880
     162A      1.985417   163A      1.988326   164A      2.000138
     165A      2.017160   166A      2.027093   167A      2.044139
     168A      2.056919   169A      2.068711   170A      2.077406
     171A      2.099778   172A      2.111551   173A      2.141955
     174A      2.149714   175A      2.165521   176A      2.172947
     177A      2.189560   178A      2.195721   179A      2.250963
     180A      2.276989   181A      2.281217   182A      2.292224
     183A      2.304736   184A      2.314525   185A      2.324395
     186A      2.334465   187A      2.342903   188A      2.385912
     189A      2.460181   190A      2.462458   191A      2.477261
     192A      2.503668   193A      2.534893   194A      2.548863
     195A      2.554784   196A      2.612176   197A      2.617590
     198A      2.632646   199A      2.746634   200A      2.752637
     201A      2.761422   202A      2.767921   203A      2.779204
     204A      2.785445   205A      2.793810   206A      2.829530
     207A      2.834919   208A      2.843555   209A      2.871946
     210A      2.906433   211A      2.964953   212A      2.974780
     213A      2.996218   214A      3.009806   215A      3.027546
     216A      3.060424   217A      3.151282   218A      3.198880
     219A      3.303812   220A      3.963800

    Final Occupation by Irrep:
              A
    DOCC [    38 ]

  @RHF Final Energy:  -388.02611492996783

   => Energetics <=

    Nuclear Repulsion Energy =            479.1279109469038531
    One-Electron Energy =               -1472.5904410368841582
    Two-Electron Energy =                 605.4364151600125297
    Total Energy =                       -388.0261149299677754

Computation Completed

Properties will be evaluated at   0.000000,   0.000000,   0.000000 [a0]

Properties computed using the SCF density matrix

  Nuclear Dipole Moment: [e a0]
     X:    -7.7467      Y:     0.1550      Z:   -11.1976

  Electronic Dipole Moment: [e a0]
     X:     7.6608      Y:    -0.1624      Z:    11.3030

  Dipole Moment: [e a0]
     X:    -0.0859      Y:    -0.0075      Z:     0.1054     Total:     0.1361

  Dipole Moment: [D]
     X:    -0.2183      Y:    -0.0189      Z:     0.2678     Total:     0.3460

*** tstop() called on ds3 at Mon Apr 27 00:06:01 2020
Module time:
	user time   =     100.01 seconds =       1.67 minutes
	system time =      37.67 seconds =       0.63 minutes
	total time  =        318 seconds =       5.30 minutes
Total time:
	user time   =     100.01 seconds =       1.67 minutes
	system time =      37.67 seconds =       0.63 minutes
	total time  =        318 seconds =       5.30 minutes
                                     G D M A

                                 by Anthony Stone

                           version 2.2.06, 22 June 2011

               Distributed Multipoles from Gaussian wavefunctions

Starting at 0:6:1 on 27 Apr 2020

Using SCF density matrix from file ./SSI/SSI-030GLU-038PHE-1-dimer.test.6545.fchk

                         Distributed Multipole Analysis

Standard DMA

Positions and radii in angstrom
Multipole moments in atomic units, ea_0^k for rank k

C          x = -1.392800  y = -0.843588  z = -2.963584 angstrom
           Maximum rank =  0   Radius =  0.650 angstrom
                   Q00  =  -0.066491

C          x = -2.569800  y =  0.109412  z = -3.230584 angstrom
           Maximum rank =  0   Radius =  0.650 angstrom
                   Q00  =  -0.249488

C          x = -0.100800  y = -0.538588  z = -3.711584 angstrom
           Maximum rank =  0   Radius =  0.650 angstrom
                   Q00  =  -0.269913

H          x = -1.178800  y = -0.777588  z = -1.898584 angstrom
           Maximum rank =  0   Radius =  0.325 angstrom
                   Q00  =   0.045118

H          x = -1.698800  y = -1.871588  z = -3.158584 angstrom
           Maximum rank =  0   Radius =  0.325 angstrom
                   Q00  =   0.053663

H          x = -3.329800  y = -0.101588  z = -2.476584 angstrom
           Maximum rank =  0   Radius =  0.325 angstrom
                   Q00  =   0.080507

H          x =  0.149200  y =  0.520412  z = -3.657584 angstrom
           Maximum rank =  0   Radius =  0.325 angstrom
                   Q00  =   0.079450

H          x =  0.696200  y = -1.069588  z = -3.188584 angstrom
           Maximum rank =  0   Radius =  0.325 angstrom
                   Q00  =   0.079541

H          x = -3.016000  y = -0.075558  z = -4.218864 angstrom
           Maximum rank =  0   Radius =  0.325 angstrom
                   Q00  =   0.081108

H          x = -2.257490  y =  1.153772  z = -3.083024 angstrom
           Maximum rank =  0   Radius =  0.325 angstrom
                   Q00  =   0.078116

H          x = -0.089980  y = -0.886858  z = -4.754944 angstrom
           Maximum rank =  0   Radius =  0.325 angstrom
                   Q00  =   0.084327

C          x = -1.153800  y =  1.317412  z =  2.825416 angstrom
           Maximum rank =  0   Radius =  0.650 angstrom
                   Q00  =  -0.199373

C          x =  0.898200  y = -0.148588  z = -0.039584 angstrom
           Maximum rank =  0   Radius =  0.650 angstrom
                   Q00  =  -0.062256

C          x = -0.116800  y =  0.503412  z =  0.665416 angstrom
           Maximum rank =  0   Radius =  0.650 angstrom
                   Q00  =  -0.092943

C          x =  1.995200  y = -0.663588  z =  0.646416 angstrom
           Maximum rank =  0   Radius =  0.650 angstrom
                   Q00  =  -0.015220

C          x = -0.033800  y =  0.647412  z =  2.054416 angstrom
           Maximum rank =  0   Radius =  0.650 angstrom
                   Q00  =  -0.103971

C          x =  2.088200  y = -0.525588  z =  2.027416 angstrom
           Maximum rank =  0   Radius =  0.650 angstrom
                   Q00  =  -0.076142

C          x =  1.080200  y =  0.128412  z =  2.729416 angstrom
           Maximum rank =  0   Radius =  0.650 angstrom
                   Q00  =  -0.051237

H          x =  0.847200  y = -0.249588  z = -1.110584 angstrom
           Maximum rank =  0   Radius =  0.325 angstrom
                   Q00  =   0.067129

H          x = -0.973800  y =  0.888412  z =  0.132416 angstrom
           Maximum rank =  0   Radius =  0.325 angstrom
                   Q00  =   0.056532

H          x =  2.763200  y = -1.177588  z =  0.100416 angstrom
           Maximum rank =  0   Radius =  0.325 angstrom
                   Q00  =   0.057423

H          x =  2.942200  y = -0.934588  z =  2.544416 angstrom
           Maximum rank =  0   Radius =  0.325 angstrom
                   Q00  =   0.064393

H          x = -1.714800  y =  1.957412  z =  2.143416 angstrom
           Maximum rank =  0   Radius =  0.325 angstrom
                   Q00  =   0.097172

H          x = -0.722800  y =  1.960412  z =  3.594416 angstrom
           Maximum rank =  0   Radius =  0.325 angstrom
                   Q00  =   0.099688

H          x =  1.168200  y =  0.231412  z =  3.802416 angstrom
           Maximum rank =  0   Radius =  0.325 angstrom
                   Q00  =   0.057116

H          x = -1.847310  y =  0.598032  z =  3.285356 angstrom
           Maximum rank =  0   Radius =  0.325 angstrom
                   Q00  =   0.105751

Total multipoles referred to origin at
           x =   0.000000,  y =    0.000000,  z =    0.000000 angstrom
                   Q00  =  -0.000000

Finished at 0:6:1 on 27 Apr 2020

  DMA results are available in the Python driver through the
	  variable('DMA DISTRIBUTED MULTIPOLES')
  and
	  variable('DMA TOTAL MULTIPOLES')
  commands.

    Psi4 stopped on: Monday, 27 April 2020 12:06AM
    Psi4 wall time for execution: 0:05:17.94

*** Psi4 exiting successfully. Buy a developer a beer!
