                               Psi4 1.3.2 release

  ==> Input File <==

--------------------------------------------------------------------------
import numpy as np
set {scf_type pk
basis cc-pvdz
d_convergence 10
gdma_switch   0
gdma_limit    0
gdma_origin   [ 0.0,  0.0,  0.0 ]
}
molecule test {
    units Angstrom
    0 1
    --
    0 1
    C                0.996562412033222    -2.369927958763960    -3.203353867735917
    C                0.529562412033222     1.083072041236040    -1.625353867735917
    C               -0.631437587966778     1.511072041236040    -2.266353867735917
    C                1.061562412033222    -0.170927958763960    -1.926353867735917
    C                0.426562412033222    -1.012927958763960    -2.845353867735917
    C               -1.268437587966778     0.681072041236040    -3.177353867735917
    C               -0.728437587966778    -0.558927958763960    -3.474353867735917
    O               -1.167437587966778     2.735072041236040    -2.031353867735917
    H                0.999562412033222     1.723072041236040    -0.894353867735917
    H                1.945562412033222    -0.509927958763960    -1.407353867735917
    H               -2.217437587966777     0.911072041236040    -3.614353867735917
    H               -2.080437587966778     2.796072041236040    -2.312353867735917
    H                0.193562412033222    -3.104927958763960    -3.158353867735917
    H                1.750562412033222    -2.652927958763960    -2.468353867735917
    H               -1.232437587966778    -1.188927958763960    -4.178353867735917
    H                1.443150412033222    -2.399797958763960    -4.208173867735917
    C               -2.015437587966778    -0.281927958763960     0.898646132264083
    C               -2.836437587966778    -1.502927958763960     1.308646132264083
    C               -0.721437587966778    -0.153927958763960     1.660646132264083
    C                0.365562412033222    -0.974927958763960     1.356646132264083
    C               -0.600437587966778     0.764072041236040     2.702646132264082
    C                1.553562412033222    -0.874927958763960     2.068646132264083
    C                0.583562412033222     0.858072041236040     3.433646132264083
    C                1.661562412033222     0.038072041236040     3.105646132264082
    O                2.841562412033222     0.132072041236040     3.781646132264083
    H               -1.816437587966778    -0.315927958763960    -0.173353867735917
    H               -2.608437587966778     0.597072041236040     1.114646132264083
    H               -2.380437587966778    -2.391927958763960     0.869646132264083
    H                0.283562412033222    -1.688927958763960     0.547646132264083
    H               -1.427437587966778     1.417072041236040     2.944646132264083
    H                2.397562412033222    -1.495927958763960     1.814646132264083
    H                0.677562412033222     1.579072041236040     4.233646132264083
    H                3.518562412033222    -0.432927958763960     3.393646132264083
    H               -3.864759587966777    -1.400097958763960     0.931846132264083
    H               -2.819906587966778    -1.630147958763960     2.401136132264083

}
e, wfn = energy('scf', return_wfn=True)
gdma(wfn)
dmavals = variable('DMA DISTRIBUTED MULTIPOLES')
charges = np.array(dmavals)
print(charges)
np.save('SSI-047TYR-058TYR-1-dimer.npy', np.array(charges))--------------------------------------------------------------------------

*** tstart() called on ds3
*** at Tue Apr 28 09:34:31 2020

   => Loading Basis Set <=

    Name: CC-PVDZ
    Role: ORBITAL
    Keyword: BASIS
    atoms 1-7, 17-24  entry C          line   138 file /theoryfs2/ds/metcalf/miniconda2/envs/tf2gpu/share/psi4/basis/cc-pvdz.gbs
    atoms 8, 25       entry O          line   198 file /theoryfs2/ds/metcalf/miniconda2/envs/tf2gpu/share/psi4/basis/cc-pvdz.gbs
    atoms 9-16, 26-35 entry H          line    22 file /theoryfs2/ds/metcalf/miniconda2/envs/tf2gpu/share/psi4/basis/cc-pvdz.gbs

         ---------------------------------------------------------
                                   SCF
               by Justin Turney, Rob Parrish, Andy Simmonett
                          and Daniel G. A. Smith
                              RHF Reference
                        1 Threads,    500 MiB Core
         ---------------------------------------------------------

  ==> Geometry <==

    Molecular point group: c1
    Full point group: C1

    Geometry (in Angstrom), charge = 0, multiplicity = 1:

       Center              X                  Y                   Z               Mass
    ------------   -----------------  -----------------  -----------------  -----------------
         C            0.996562412033    -2.369927958764    -3.203353867736    12.000000000000
         C            0.529562412033     1.083072041236    -1.625353867736    12.000000000000
         C           -0.631437587967     1.511072041236    -2.266353867736    12.000000000000
         C            1.061562412033    -0.170927958764    -1.926353867736    12.000000000000
         C            0.426562412033    -1.012927958764    -2.845353867736    12.000000000000
         C           -1.268437587967     0.681072041236    -3.177353867736    12.000000000000
         C           -0.728437587967    -0.558927958764    -3.474353867736    12.000000000000
         O           -1.167437587967     2.735072041236    -2.031353867736    15.994914619570
         H            0.999562412033     1.723072041236    -0.894353867736     1.007825032230
         H            1.945562412033    -0.509927958764    -1.407353867736     1.007825032230
         H           -2.217437587967     0.911072041236    -3.614353867736     1.007825032230
         H           -2.080437587967     2.796072041236    -2.312353867736     1.007825032230
         H            0.193562412033    -3.104927958764    -3.158353867736     1.007825032230
         H            1.750562412033    -2.652927958764    -2.468353867736     1.007825032230
         H           -1.232437587967    -1.188927958764    -4.178353867736     1.007825032230
         H            1.443150412033    -2.399797958764    -4.208173867736     1.007825032230
         C           -2.015437587967    -0.281927958764     0.898646132264    12.000000000000
         C           -2.836437587967    -1.502927958764     1.308646132264    12.000000000000
         C           -0.721437587967    -0.153927958764     1.660646132264    12.000000000000
         C            0.365562412033    -0.974927958764     1.356646132264    12.000000000000
         C           -0.600437587967     0.764072041236     2.702646132264    12.000000000000
         C            1.553562412033    -0.874927958764     2.068646132264    12.000000000000
         C            0.583562412033     0.858072041236     3.433646132264    12.000000000000
         C            1.661562412033     0.038072041236     3.105646132264    12.000000000000
         O            2.841562412033     0.132072041236     3.781646132264    15.994914619570
         H           -1.816437587967    -0.315927958764    -0.173353867736     1.007825032230
         H           -2.608437587967     0.597072041236     1.114646132264     1.007825032230
         H           -2.380437587967    -2.391927958764     0.869646132264     1.007825032230
         H            0.283562412033    -1.688927958764     0.547646132264     1.007825032230
         H           -1.427437587967     1.417072041236     2.944646132264     1.007825032230
         H            2.397562412033    -1.495927958764     1.814646132264     1.007825032230
         H            0.677562412033     1.579072041236     4.233646132264     1.007825032230
         H            3.518562412033    -0.432927958764     3.393646132264     1.007825032230
         H           -3.864759587967    -1.400097958764     0.931846132264     1.007825032230
         H           -2.819906587967    -1.630147958764     2.401136132264     1.007825032230

  Running in c1 symmetry.

  Rotational constants: A =      0.02032  B =      0.00874  C =      0.00815 [cm^-1]
  Rotational constants: A =    609.26201  B =    261.99637  C =    244.34267 [MHz]
  Nuclear repulsion = 1140.278405643270617

  Charge       = 0
  Multiplicity = 1
  Electrons    = 124
  Nalpha       = 62
  Nbeta        = 62

  ==> Algorithm <==

  SCF Algorithm Type is PK.
  DIIS enabled.
  MOM disabled.
  Fractional occupation disabled.
  Guess Type is SAD.
  Energy threshold   = 1.00e-06
  Density threshold  = 1.00e-10
  Integral threshold = 0.00e+00

  ==> Primary Basis <==

  Basis Set: CC-PVDZ
    Blend: CC-PVDZ
    Number of shells: 156
    Number of basis function: 328
    Number of Cartesian functions: 345
    Spherical Harmonics?: true
    Max angular momentum: 2

  ==> Pre-Iterations <==

   -------------------------------------------------------
    Irrep   Nso     Nmo     Nalpha   Nbeta   Ndocc  Nsocc
   -------------------------------------------------------
     A        328     328       0       0       0       0
   -------------------------------------------------------
    Total     328     328      62      62      62       0
   -------------------------------------------------------

  ==> Integral Setup <==

  Using integral reordering PK algorithm.
  Sizing the integral batches needed.
  Building batch lookup table.
   Calculation information:
      Number of atoms:                  35
      Number of AO shells:             156
      Number of primitives:            464
      Number of atomic orbitals:       345
      Number of basis functions:       328

      Integral cutoff                 1.00e-12
      Number of threads:                 1

	Batch   1 pq = [       0,    9405] index = [             0,44231715] size =     44231715
	Batch   2 pq = [    9405,   13301] index = [      44231715,88464951] size =     44233236
	Batch   3 pq = [   13301,   16290] index = [      88464951,132690195] size =     44225244
	Batch   4 pq = [   16290,   18810] index = [     132690195,176917455] size =     44227260
	Batch   5 pq = [   18810,   21030] index = [     176917455,221140965] size =     44223510
	Batch   6 pq = [   21030,   23037] index = [     221140965,265363203] size =     44222238
	Batch   7 pq = [   23037,   24883] index = [     265363203,309594286] size =     44231083
	Batch   8 pq = [   24883,   26601] index = [     309594286,353819901] size =     44225615
	Batch   9 pq = [   26601,   28214] index = [     353819901,398029005] size =     44209104
	Batch  10 pq = [   28214,   29740] index = [     398029005,442248670] size =     44219665
	Batch  11 pq = [   29740,   31191] index = [     442248670,486454836] size =     44206166
	Batch  12 pq = [   31191,   32578] index = [     486454836,530679331] size =     44224495
	Batch  13 pq = [   32578,   33908] index = [     530679331,574893186] size =     44213855
	Batch  14 pq = [   33908,   35188] index = [     574893186,619115266] size =     44222080
	Batch  15 pq = [   35188,   36423] index = [     619115266,663335676] size =     44220410
	Batch  16 pq = [   36423,   37617] index = [     663335676,707538153] size =     44202477
	Batch  17 pq = [   37617,   38775] index = [     707538153,751769700] size =     44231547
	Batch  18 pq = [   38775,   39899] index = [     751769700,795985050] size =     44215350
	Batch  19 pq = [   39899,   40992] index = [     795985050,840192528] size =     44207478
	Batch  20 pq = [   40992,   42057] index = [     840192528,884416653] size =     44224125
	Batch  21 pq = [   42057,   43095] index = [     884416653,928611060] size =     44194407
	Batch  22 pq = [   43095,   44109] index = [     928611060,972823995] size =     44212935
	Batch  23 pq = [   44109,   45100] index = [     972823995,1017027550] size =     44203555
	Batch  24 pq = [   45100,   46070] index = [    1017027550,1061245485] size =     44217935
	Batch  25 pq = [   46070,   47020] index = [    1061245485,1105463710] size =     44218225
	Batch  26 pq = [   47020,   47951] index = [    1105463710,1149673176] size =     44209466
	Batch  27 pq = [   47951,   48864] index = [    1149673176,1193869680] size =     44196504
	Batch  28 pq = [   48864,   49761] index = [    1193869680,1238103441] size =     44233761
	Batch  29 pq = [   49761,   50642] index = [    1238103441,1282331403] size =     44227962
	Batch  30 pq = [   50642,   51508] index = [    1282331403,1326562786] size =     44231383
	Batch  31 pq = [   51508,   52359] index = [    1326562786,1370758620] size =     44195834
	Batch  32 pq = [   52359,   53197] index = [    1370758620,1414987003] size =     44228383
	Batch  33 pq = [   53197,   53956] index = [    1414987003,1455651946] size =     40664943
  Task number: 132
  Buffer size: 11059200
  Buffer per thread: 2
  We computed 85324362 shell quartets total.
  Whereas there are 74988381 unique shell quartets.
    13.78 percent of shell quartets recomputed by reordering.

  ==> DiskJK: Disk-Based J/K Matrices <==

    J tasked:                  Yes
    K tasked:                  Yes
    wK tasked:                  No
    Memory [MiB]:              375
    Schwarz Cutoff:          1E-12

    OpenMP threads:              1

  Minimum eigenvalue in the overlap matrix is 3.0980444005E-04.
  Using Symmetric Orthogonalization.

  SCF Guess: Superposition of Atomic Densities via on-the-fly atomic UHF.

  ==> Iterations <==

                        Total Energy        Delta E     RMS |[F,P]|

   @RHF iter SAD:  -727.08547638346852   -7.27085e+02   0.00000e+00
   @RHF iter   1:  -727.89911572211838   -8.13639e-01   2.33653e-03 DIIS
   @RHF iter   2:  -728.22229006201519   -3.23174e-01   9.90035e-04 DIIS
   @RHF iter   3:  -728.27370357451821   -5.14135e-02   2.40344e-04 DIIS
   @RHF iter   4:  -728.27818612510305   -4.48255e-03   1.05416e-04 DIIS
   @RHF iter   5:  -728.27888718009149   -7.01055e-04   1.62628e-05 DIIS
   @RHF iter   6:  -728.27891514301245   -2.79629e-05   5.84341e-06 DIIS
   @RHF iter   7:  -728.27891828824943   -3.14524e-06   1.99404e-06 DIIS
   @RHF iter   8:  -728.27891875499211   -4.66743e-07   6.63469e-07 DIIS
   @RHF iter   9:  -728.27891881671496   -6.17229e-08   2.49454e-07 DIIS
   @RHF iter  10:  -728.27891882642530   -9.71033e-09   1.06664e-07 DIIS
   @RHF iter  11:  -728.27891882922495   -2.79965e-09   5.14121e-08 DIIS
   @RHF iter  12:  -728.27891883001939   -7.94444e-10   2.46901e-08 DIIS
   @RHF iter  13:  -728.27891883017014   -1.50749e-10   7.39175e-09 DIIS
   @RHF iter  14:  -728.27891883018424   -1.40972e-11   2.45346e-09 DIIS
   @RHF iter  15:  -728.27891883018742   -3.18323e-12   7.37338e-10 DIIS
   @RHF iter  16:  -728.27891883018765   -2.27374e-13   3.49510e-10 DIIS
   @RHF iter  17:  -728.27891883018492    2.72848e-12   1.30686e-10 DIIS
   @RHF iter  18:  -728.27891883018492    0.00000e+00   6.11707e-11 DIIS
  Energy and wave function converged.

  ==> Post-Iterations <==

    Orbital Energies [Eh]
    ---------------------

    Doubly Occupied:

       1A    -20.580200     2A    -20.579793     3A    -11.298663
       4A    -11.295654     5A    -11.238943     6A    -11.235821
       7A    -11.234731     8A    -11.234299     9A    -11.234260
      10A    -11.231057    11A    -11.230041    12A    -11.229782
      13A    -11.228760    14A    -11.227111    15A    -11.225157
      16A    -11.219147    17A    -11.217322    18A     -1.401794
      19A     -1.396962    20A     -1.151978    21A     -1.148586
      22A     -1.054303    23A     -1.037129    24A     -1.019827
      25A     -1.014839    26A     -0.972048    27A     -0.927617
      28A     -0.854990    29A     -0.843974    30A     -0.841125
      31A     -0.805321    32A     -0.787066    33A     -0.736289
      34A     -0.728442    35A     -0.669436    36A     -0.668207
      37A     -0.643669    38A     -0.642134    39A     -0.611560
      40A     -0.609372    41A     -0.592326    42A     -0.588955
      43A     -0.586802    44A     -0.583410    45A     -0.581265
      46A     -0.573648    47A     -0.566476    48A     -0.563338
      49A     -0.541831    50A     -0.526708    51A     -0.515042
      52A     -0.497449    53A     -0.492523    54A     -0.484294
      55A     -0.474302    56A     -0.471540    57A     -0.462251
      58A     -0.460331    59A     -0.343447    60A     -0.331938
      61A     -0.302526    62A     -0.296458

    Virtual:

      63A      0.126998    64A      0.133607    65A      0.153845
      66A      0.160643    67A      0.169332    68A      0.176766
      69A      0.184034    70A      0.198425    71A      0.208280
      72A      0.214977    73A      0.223085    74A      0.237665
      75A      0.249938    76A      0.252486    77A      0.262642
      78A      0.265578    79A      0.270207    80A      0.281897
      81A      0.290217    82A      0.296327    83A      0.309040
      84A      0.319525    85A      0.356111    86A      0.369126
      87A      0.372833    88A      0.389442    89A      0.415760
      90A      0.428577    91A      0.433618    92A      0.453597
      93A      0.470443    94A      0.483772    95A      0.493585
      96A      0.495858    97A      0.503131    98A      0.506304
      99A      0.523599   100A      0.594264   101A      0.602491
     102A      0.612761   103A      0.623858   104A      0.631915
     105A      0.638216   106A      0.653020   107A      0.656947
     108A      0.669902   109A      0.677945   110A      0.682929
     111A      0.699637   112A      0.706011   113A      0.710833
     114A      0.716415   115A      0.725437   116A      0.728878
     117A      0.733517   118A      0.738017   119A      0.741765
     120A      0.756112   121A      0.763542   122A      0.771328
     123A      0.773748   124A      0.788029   125A      0.792308
     126A      0.795716   127A      0.813516   128A      0.815248
     129A      0.827740   130A      0.835143   131A      0.850182
     132A      0.859731   133A      0.863724   134A      0.868226
     135A      0.879896   136A      0.884012   137A      0.887936
     138A      0.892553   139A      0.896736   140A      0.899607
     141A      0.906171   142A      0.911875   143A      0.918405
     144A      0.928484   145A      0.931864   146A      0.938578
     147A      0.943745   148A      0.949666   149A      0.958144
     150A      0.971943   151A      0.978247   152A      0.984028
     153A      1.002509   154A      1.009174   155A      1.023309
     156A      1.032128   157A      1.051892   158A      1.056923
     159A      1.067955   160A      1.111095   161A      1.127700
     162A      1.134288   163A      1.142915   164A      1.149101
     165A      1.153981   166A      1.160943   167A      1.176797
     168A      1.179546   169A      1.192704   170A      1.206315
     171A      1.232198   172A      1.242511   173A      1.246473
     174A      1.258740   175A      1.261621   176A      1.273653
     177A      1.286971   178A      1.288567   179A      1.299010
     180A      1.301540   181A      1.310943   182A      1.315224
     183A      1.327522   184A      1.345537   185A      1.352667
     186A      1.355837   187A      1.364396   188A      1.376215
     189A      1.393965   190A      1.403920   191A      1.438088
     192A      1.452710   193A      1.482848   194A      1.500764
     195A      1.509792   196A      1.517715   197A      1.532990
     198A      1.556017   199A      1.562870   200A      1.607594
     201A      1.621850   202A      1.627021   203A      1.634463
     204A      1.643566   205A      1.674584   206A      1.682659
     207A      1.694651   208A      1.700262   209A      1.734011
     210A      1.737742   211A      1.747283   212A      1.756076
     213A      1.774589   214A      1.794589   215A      1.802324
     216A      1.807666   217A      1.816887   218A      1.840851
     219A      1.850443   220A      1.864235   221A      1.877201
     222A      1.888484   223A      1.893181   224A      1.897832
     225A      1.902876   226A      1.910052   227A      1.916599
     228A      1.919768   229A      1.925209   230A      1.932628
     231A      1.935572   232A      1.939192   233A      1.953229
     234A      1.960427   235A      1.969822   236A      1.971714
     237A      1.974358   238A      1.984301   239A      1.992078
     240A      2.002245   241A      2.009800   242A      2.022874
     243A      2.028562   244A      2.036968   245A      2.048476
     246A      2.058892   247A      2.060574   248A      2.071628
     249A      2.076250   250A      2.083965   251A      2.088731
     252A      2.092656   253A      2.111405   254A      2.127153
     255A      2.135888   256A      2.149717   257A      2.151980
     258A      2.182861   259A      2.187980   260A      2.206314
     261A      2.215629   262A      2.219062   263A      2.248097
     264A      2.260047   265A      2.261539   266A      2.276672
     267A      2.280218   268A      2.311508   269A      2.313831
     270A      2.327178   271A      2.341741   272A      2.362723
     273A      2.370384   274A      2.379015   275A      2.410494
     276A      2.449810   277A      2.457840   278A      2.459820
     279A      2.466556   280A      2.487878   281A      2.491368
     282A      2.524885   283A      2.529950   284A      2.533309
     285A      2.541842   286A      2.552014   287A      2.565987
     288A      2.579660   289A      2.607967   290A      2.645515
     291A      2.648538   292A      2.656475   293A      2.748392
     294A      2.761763   295A      2.770619   296A      2.774856
     297A      2.798504   298A      2.807722   299A      2.819314
     300A      2.829326   301A      2.844525   302A      2.874665
     303A      2.879535   304A      2.909780   305A      2.931152
     306A      2.964336   307A      2.984620   308A      3.000507
     309A      3.005964   310A      3.022703   311A      3.094851
     312A      3.099537   313A      3.123448   314A      3.177193
     315A      3.256658   316A      3.268678   317A      3.288705
     318A      3.296675   319A      3.348589   320A      3.368683
     321A      3.581677   322A      3.584025   323A      3.670653
     324A      3.674497   325A      3.989468   326A      4.001836
     327A      4.179904   328A      4.189953

    Final Occupation by Irrep:
              A
    DOCC [    62 ]

  @RHF Final Energy:  -728.27891883018492

   => Energetics <=

    Nuclear Repulsion Energy =           1140.2784056432706166
    One-Electron Energy =               -3254.8261038103523788
    Two-Electron Energy =                1386.2687793368968414
    Total Energy =                       -728.2789188301849208

Computation Completed

Properties will be evaluated at   0.000000,   0.000000,   0.000000 [a0]

Properties computed using the SCF density matrix

  Nuclear Dipole Moment: [e a0]
     X:    -6.7774      Y:    -9.5381      Z:    -3.8947

  Electronic Dipole Moment: [e a0]
     X:     6.4023      Y:     8.8974      Z:     3.1834

  Dipole Moment: [e a0]
     X:    -0.3751      Y:    -0.6407      Z:    -0.7113     Total:     1.0282

  Dipole Moment: [D]
     X:    -0.9534      Y:    -1.6285      Z:    -1.8080     Total:     2.6134

*** tstop() called on ds3 at Tue Apr 28 09:55:51 2020
Module time:
	user time   =     760.67 seconds =      12.68 minutes
	system time =     243.82 seconds =       4.06 minutes
	total time  =       1280 seconds =      21.33 minutes
Total time:
	user time   =     760.67 seconds =      12.68 minutes
	system time =     243.82 seconds =       4.06 minutes
	total time  =       1280 seconds =      21.33 minutes
                                     G D M A

                                 by Anthony Stone

                           version 2.2.06, 22 June 2011

               Distributed Multipoles from Gaussian wavefunctions

Starting at 9:55:51 on 28 Apr 2020

Using SCF density matrix from file ./SSI/SSI-047TYR-058TYR-1-dimer.test.10839.fchk

                         Distributed Multipole Analysis

Standard DMA

Positions and radii in angstrom
Multipole moments in atomic units, ea_0^k for rank k

C          x =  0.996562  y = -2.369928  z = -3.203354 angstrom
           Maximum rank =  0   Radius =  0.650 angstrom
                   Q00  =  -0.199964

C          x =  0.529562  y =  1.083072  z = -1.625354 angstrom
           Maximum rank =  0   Radius =  0.650 angstrom
                   Q00  =  -0.113562

C          x = -0.631438  y =  1.511072  z = -2.266354 angstrom
           Maximum rank =  0   Radius =  0.650 angstrom
                   Q00  =   0.310809

C          x =  1.061562  y = -0.170928  z = -1.926354 angstrom
           Maximum rank =  0   Radius =  0.650 angstrom
                   Q00  =  -0.045710

C          x =  0.426562  y = -1.012928  z = -2.845354 angstrom
           Maximum rank =  0   Radius =  0.650 angstrom
                   Q00  =  -0.149340

C          x = -1.268438  y =  0.681072  z = -3.177354 angstrom
           Maximum rank =  0   Radius =  0.650 angstrom
                   Q00  =  -0.187241

C          x = -0.728438  y = -0.558928  z = -3.474354 angstrom
           Maximum rank =  0   Radius =  0.650 angstrom
                   Q00  =   0.042107

O          x = -1.167438  y =  2.735072  z = -2.031354 angstrom
           Maximum rank =  0   Radius =  0.650 angstrom
                   Q00  =  -0.633671

H          x =  0.999562  y =  1.723072  z = -0.894354 angstrom
           Maximum rank =  0   Radius =  0.325 angstrom
                   Q00  =   0.088874

H          x =  1.945562  y = -0.509928  z = -1.407354 angstrom
           Maximum rank =  0   Radius =  0.325 angstrom
                   Q00  =   0.062322

H          x = -2.217438  y =  0.911072  z = -3.614354 angstrom
           Maximum rank =  0   Radius =  0.325 angstrom
                   Q00  =   0.070545

H          x = -2.080438  y =  2.796072  z = -2.312354 angstrom
           Maximum rank =  0   Radius =  0.325 angstrom
                   Q00  =   0.405178

H          x =  0.193562  y = -3.104928  z = -3.158354 angstrom
           Maximum rank =  0   Radius =  0.325 angstrom
                   Q00  =   0.094171

H          x =  1.750562  y = -2.652928  z = -2.468354 angstrom
           Maximum rank =  0   Radius =  0.325 angstrom
                   Q00  =   0.093816

H          x = -1.232438  y = -1.188928  z = -4.178354 angstrom
           Maximum rank =  0   Radius =  0.325 angstrom
                   Q00  =   0.064052

H          x =  1.443150  y = -2.399798  z = -4.208174 angstrom
           Maximum rank =  0   Radius =  0.325 angstrom
                   Q00  =   0.101826

C          x = -2.015438  y = -0.281928  z =  0.898646 angstrom
           Maximum rank =  0   Radius =  0.650 angstrom
                   Q00  =  -0.013243

C          x = -2.836438  y = -1.502928  z =  1.308646 angstrom
           Maximum rank =  0   Radius =  0.650 angstrom
                   Q00  =  -0.250905

C          x = -0.721438  y = -0.153928  z =  1.660646 angstrom
           Maximum rank =  0   Radius =  0.650 angstrom
                   Q00  =  -0.143348

C          x =  0.365562  y = -0.974928  z =  1.356646 angstrom
           Maximum rank =  0   Radius =  0.650 angstrom
                   Q00  =   0.028608

C          x = -0.600438  y =  0.764072  z =  2.702646 angstrom
           Maximum rank =  0   Radius =  0.650 angstrom
                   Q00  =  -0.047519

C          x =  1.553562  y = -0.874928  z =  2.068646 angstrom
           Maximum rank =  0   Radius =  0.650 angstrom
                   Q00  =  -0.186085

C          x =  0.583562  y =  0.858072  z =  3.433646 angstrom
           Maximum rank =  0   Radius =  0.650 angstrom
                   Q00  =  -0.124957

C          x =  1.661562  y =  0.038072  z =  3.105646 angstrom
           Maximum rank =  0   Radius =  0.650 angstrom
                   Q00  =   0.321361

O          x =  2.841562  y =  0.132072  z =  3.781646 angstrom
           Maximum rank =  0   Radius =  0.650 angstrom
                   Q00  =  -0.644548

H          x = -1.816438  y = -0.315928  z = -0.173354 angstrom
           Maximum rank =  0   Radius =  0.325 angstrom
                   Q00  =   0.079342

H          x = -2.608438  y =  0.597072  z =  1.114646 angstrom
           Maximum rank =  0   Radius =  0.325 angstrom
                   Q00  =   0.056221

H          x = -2.380438  y = -2.391928  z =  0.869646 angstrom
           Maximum rank =  0   Radius =  0.325 angstrom
                   Q00  =   0.076163

H          x =  0.283562  y = -1.688928  z =  0.547646 angstrom
           Maximum rank =  0   Radius =  0.325 angstrom
                   Q00  =   0.069269

H          x = -1.427438  y =  1.417072  z =  2.944646 angstrom
           Maximum rank =  0   Radius =  0.325 angstrom
                   Q00  =   0.063780

H          x =  2.397562  y = -1.495928  z =  1.814646 angstrom
           Maximum rank =  0   Radius =  0.325 angstrom
                   Q00  =   0.064756

H          x =  0.677562  y =  1.579072  z =  4.233646 angstrom
           Maximum rank =  0   Radius =  0.325 angstrom
                   Q00  =   0.080150

H          x =  3.518562  y = -0.432928  z =  3.393646 angstrom
           Maximum rank =  0   Radius =  0.325 angstrom
                   Q00  =   0.405148

H          x = -3.864760  y = -1.400098  z =  0.931846 angstrom
           Maximum rank =  0   Radius =  0.325 angstrom
                   Q00  =   0.078238

H          x = -2.819907  y = -1.630148  z =  2.401136 angstrom
           Maximum rank =  0   Radius =  0.325 angstrom
                   Q00  =   0.083356

Total multipoles referred to origin at
           x =   0.000000,  y =    0.000000,  z =    0.000000 angstrom
                   Q00  =  -0.000000

Finished at 9:55:51 on 28 Apr 2020

  DMA results are available in the Python driver through the
	  variable('DMA DISTRIBUTED MULTIPOLES')
  and
	  variable('DMA TOTAL MULTIPOLES')
  commands.

    Psi4 stopped on: Tuesday, 28 April 2020 09:55AM
    Psi4 wall time for execution: 0:21:19.63

*** Psi4 exiting successfully. Buy a developer a beer!
