                               Psi4 1.3.2 release

  ==> Input File <==

--------------------------------------------------------------------------
import numpy as np
set {scf_type pk
basis cc-pvdz
d_convergence 10
gdma_switch   0
gdma_limit    0
gdma_origin   [ 0.0,  0.0,  0.0 ]
}
molecule test {
    units Angstrom
    -1 1
    --
    -1 1
    C               -2.367142079903608    -0.270392971721538     0.291075453758325
    C               -3.553142079903608     0.495607028278462    -0.272924546241675
    H               -1.846142079903607    -0.804392971721538    -0.502924546241675
    H               -1.691142079903607     0.450607028278462     0.744075453758325
    H               -2.682142079903608    -0.969392971721538     1.066075453758325
    H               -3.187142079903607     1.303607028278462    -0.904924546241675
    H               -4.067142079903608     0.963607028278462     0.568075453758325
    H               -4.280765079903608    -0.124485971721538    -0.817028546241675
    C                1.023857920096392     0.757607028278462    -0.699924546241675
    C                2.386857920096392     0.723607028278462    -1.400924546241675
    C                0.913857920096393    -0.286392971721538     0.397075453758325
    O                0.935857920096392    -1.498392971721539     0.083075453758325
    O                0.798857920096393     0.108607028278462     1.579075453758325
    H                0.834857920096393     1.737607028278462    -0.277924546241675
    H                0.242857920096393     0.564607028278462    -1.430924546241675
    H                2.496857920096392    -0.268392971721538    -1.833924546241675
    H                3.213527920096392     0.853620028278462    -0.686982546241675
    H                2.435024920096392     1.441806028278461    -2.232712546241675

}
e, wfn = energy('scf', return_wfn=True)
gdma(wfn)
dmavals = variable('DMA DISTRIBUTED MULTIPOLES')
charges = np.array(dmavals)
print(charges)
np.save('SSI-061ILE-155ASP-1-dimer.npy', np.array(charges))--------------------------------------------------------------------------

*** tstart() called on ds3
*** at Mon Apr 27 16:29:55 2020

   => Loading Basis Set <=

    Name: CC-PVDZ
    Role: ORBITAL
    Keyword: BASIS
    atoms 1-2, 9-11  entry C          line   138 file /theoryfs2/ds/metcalf/miniconda2/envs/tf2gpu/share/psi4/basis/cc-pvdz.gbs
    atoms 3-8, 14-18 entry H          line    22 file /theoryfs2/ds/metcalf/miniconda2/envs/tf2gpu/share/psi4/basis/cc-pvdz.gbs
    atoms 12-13      entry O          line   198 file /theoryfs2/ds/metcalf/miniconda2/envs/tf2gpu/share/psi4/basis/cc-pvdz.gbs

         ---------------------------------------------------------
                                   SCF
               by Justin Turney, Rob Parrish, Andy Simmonett
                          and Daniel G. A. Smith
                              RHF Reference
                        1 Threads,    500 MiB Core
         ---------------------------------------------------------

  ==> Geometry <==

    Molecular point group: c1
    Full point group: C1

    Geometry (in Angstrom), charge = -1, multiplicity = 1:

       Center              X                  Y                   Z               Mass
    ------------   -----------------  -----------------  -----------------  -----------------
         C           -2.367142079904    -0.270392971722     0.291075453758    12.000000000000
         C           -3.553142079904     0.495607028278    -0.272924546242    12.000000000000
         H           -1.846142079904    -0.804392971722    -0.502924546242     1.007825032230
         H           -1.691142079904     0.450607028278     0.744075453758     1.007825032230
         H           -2.682142079904    -0.969392971722     1.066075453758     1.007825032230
         H           -3.187142079904     1.303607028278    -0.904924546242     1.007825032230
         H           -4.067142079904     0.963607028278     0.568075453758     1.007825032230
         H           -4.280765079904    -0.124485971722    -0.817028546242     1.007825032230
         C            1.023857920096     0.757607028278    -0.699924546242    12.000000000000
         C            2.386857920096     0.723607028278    -1.400924546242    12.000000000000
         C            0.913857920096    -0.286392971722     0.397075453758    12.000000000000
         O            0.935857920096    -1.498392971722     0.083075453758    15.994914619570
         O            0.798857920096     0.108607028278     1.579075453758    15.994914619570
         H            0.834857920096     1.737607028278    -0.277924546242     1.007825032230
         H            0.242857920096     0.564607028278    -1.430924546242     1.007825032230
         H            2.496857920096    -0.268392971722    -1.833924546242     1.007825032230
         H            3.213527920096     0.853620028278    -0.686982546242     1.007825032230
         H            2.435024920096     1.441806028278    -2.232712546242     1.007825032230

  Running in c1 symmetry.

  Rotational constants: A =      0.11251  B =      0.03626  C =      0.03220 [cm^-1]
  Rotational constants: A =   3373.07939  B =   1086.98319  C =    965.33594 [MHz]
  Nuclear repulsion =  298.172772409490904

  Charge       = -1
  Multiplicity = 1
  Electrons    = 58
  Nalpha       = 29
  Nbeta        = 29

  ==> Algorithm <==

  SCF Algorithm Type is PK.
  DIIS enabled.
  MOM disabled.
  Fractional occupation disabled.
  Guess Type is SAD.
  Energy threshold   = 1.00e-06
  Density threshold  = 1.00e-10
  Integral threshold = 0.00e+00

  ==> Primary Basis <==

  Basis Set: CC-PVDZ
    Blend: CC-PVDZ
    Number of shells: 75
    Number of basis function: 153
    Number of Cartesian functions: 160
    Spherical Harmonics?: true
    Max angular momentum: 2

  ==> Pre-Iterations <==

   -------------------------------------------------------
    Irrep   Nso     Nmo     Nalpha   Nbeta   Ndocc  Nsocc
   -------------------------------------------------------
     A        153     153       0       0       0       0
   -------------------------------------------------------
    Total     153     153      29      29      29       0
   -------------------------------------------------------

  ==> Integral Setup <==

  Using integral reordering PK algorithm.
  Sizing the integral batches needed.
  Building batch lookup table.
   Calculation information:
      Number of atoms:                  18
      Number of AO shells:              75
      Number of primitives:            209
      Number of atomic orbitals:       160
      Number of basis functions:       153

      Integral cutoff                 1.00e-12
      Number of threads:                 1

	Batch   1 pq = [       0,    9405] index = [             0,44231715] size =     44231715
	Batch   2 pq = [    9405,   11781] index = [      44231715,69401871] size =     25170156
  Task number: 7
  Buffer size: 11059200
  Buffer per thread: 2
  We computed 3604485 shell quartets total.
  Whereas there are 4062675 unique shell quartets.

  ==> DiskJK: Disk-Based J/K Matrices <==

    J tasked:                  Yes
    K tasked:                  Yes
    wK tasked:                  No
    Memory [MiB]:              375
    Schwarz Cutoff:          1E-12

    OpenMP threads:              1

  Minimum eigenvalue in the overlap matrix is 4.2636432989E-03.
  Using Symmetric Orthogonalization.

  SCF Guess: Superposition of Atomic Densities via on-the-fly atomic UHF.

  ==> Iterations <==

                        Total Energy        Delta E     RMS |[F,P]|

   @RHF iter SAD:  -343.89261396086323   -3.43893e+02   0.00000e+00
   @RHF iter   1:  -345.22250347492536   -1.32989e+00   4.88909e-03 DIIS
   @RHF iter   2:  -345.44474225111236   -2.22239e-01   2.68196e-03 DIIS
   @RHF iter   3:  -345.50771789910419   -6.29756e-02   4.25377e-04 DIIS
   @RHF iter   4:  -345.51067105360090   -2.95315e-03   1.67608e-04 DIIS
   @RHF iter   5:  -345.51110685160097   -4.35798e-04   2.43222e-05 DIIS
   @RHF iter   6:  -345.51112024998883   -1.33984e-05   5.23650e-06 DIIS
   @RHF iter   7:  -345.51112087633055   -6.26342e-07   1.68825e-06 DIIS
   @RHF iter   8:  -345.51112093252101   -5.61905e-08   5.49495e-07 DIIS
   @RHF iter   9:  -345.51112093905073   -6.52972e-09   2.76014e-07 DIIS
   @RHF iter  10:  -345.51112094027837   -1.22765e-09   7.04434e-08 DIIS
   @RHF iter  11:  -345.51112094044765   -1.69280e-10   2.21064e-08 DIIS
   @RHF iter  12:  -345.51112094045959   -1.19371e-11   7.32262e-09 DIIS
   @RHF iter  13:  -345.51112094046420   -4.60432e-12   2.73730e-09 DIIS
   @RHF iter  14:  -345.51112094046402    1.70530e-13   9.48898e-10 DIIS
   @RHF iter  15:  -345.51112094046505   -1.02318e-12   3.25888e-10 DIIS
   @RHF iter  16:  -345.51112094046624   -1.19371e-12   1.08089e-10 DIIS
   @RHF iter  17:  -345.51112094046431    1.93268e-12   4.63464e-11 DIIS
  Energy and wave function converged.

  ==> Post-Iterations <==

    Orbital Energies [Eh]
    ---------------------

    Doubly Occupied:

       1A    -20.259712     2A    -20.259302     3A    -11.112524
       4A    -11.104345     5A    -11.080046     6A    -11.076357
       7A    -11.051589     8A     -1.149036     9A     -1.034959
      10A     -0.896481    11A     -0.873355    12A     -0.711616
      13A     -0.705670    14A     -0.509908    15A     -0.477664
      16A     -0.474909    17A     -0.454477    18A     -0.431473
      19A     -0.391886    20A     -0.378295    21A     -0.369706
      22A     -0.365860    23A     -0.357456    24A     -0.353323
      25A     -0.322427    26A     -0.299159    27A     -0.180933
      28A     -0.171697    29A     -0.159600

    Virtual:

      30A      0.295624    31A      0.328273    32A      0.355405
      33A      0.363295    34A      0.370521    35A      0.389766
      36A      0.392204    37A      0.410317    38A      0.420156
      39A      0.439702    40A      0.461817    41A      0.475603
      42A      0.523541    43A      0.554613    44A      0.603169
      45A      0.668779    46A      0.702490    47A      0.716128
      48A      0.737519    49A      0.747127    50A      0.769141
      51A      0.802108    52A      0.817438    53A      0.820847
      54A      0.890304    55A      0.974999    56A      0.978747
      57A      0.997086    58A      1.000269    59A      1.006318
      60A      1.017272    61A      1.027538    62A      1.032372
      63A      1.042530    64A      1.046197    65A      1.055421
      66A      1.066765    67A      1.074885    68A      1.085417
      69A      1.105464    70A      1.121640    71A      1.147065
      72A      1.162056    73A      1.230942    74A      1.251250
      75A      1.301310    76A      1.309472    77A      1.336236
      78A      1.397187    79A      1.406458    80A      1.506517
      81A      1.534011    82A      1.544786    83A      1.596614
      84A      1.607075    85A      1.610578    86A      1.627117
      87A      1.634263    88A      1.680253    89A      1.700753
      90A      1.718237    91A      1.763311    92A      1.795746
      93A      1.829793    94A      1.838042    95A      1.852109
      96A      1.965431    97A      1.984371    98A      2.003787
      99A      2.019034   100A      2.032365   101A      2.052809
     102A      2.059620   103A      2.069671   104A      2.083699
     105A      2.091830   106A      2.102898   107A      2.120896
     108A      2.129568   109A      2.135730   110A      2.156784
     111A      2.166037   112A      2.185916   113A      2.216727
     114A      2.228290   115A      2.251764   116A      2.308973
     117A      2.353930   118A      2.403062   119A      2.438693
     120A      2.445073   121A      2.496273   122A      2.504401
     123A      2.559433   124A      2.588760   125A      2.622781
     126A      2.644017   127A      2.684727   128A      2.702772
     129A      2.720757   130A      2.735909   131A      2.762147
     132A      2.852153   133A      2.877882   134A      2.901075
     135A      2.947574   136A      2.978745   137A      2.995255
     138A      3.001395   139A      3.020710   140A      3.041381
     141A      3.090394   142A      3.106560   143A      3.137727
     144A      3.246087   145A      3.288935   146A      3.303950
     147A      3.368651   148A      3.644722   149A      3.791660
     150A      3.832930   151A      4.069173   152A      4.087228
     153A      4.197967

    Final Occupation by Irrep:
              A
    DOCC [    29 ]

  @RHF Final Energy:  -345.51112094046431

   => Energetics <=

    Nuclear Repulsion Energy =            298.1727724094909036
    One-Electron Energy =               -1073.3402585803753482
    Two-Electron Energy =                 429.6563652304201355
    Total Energy =                       -345.5111209404643091

Computation Completed

Properties will be evaluated at   0.000000,   0.000000,   0.000000 [a0]

Properties computed using the SCF density matrix

  Nuclear Dipole Moment: [e a0]
     X:    -7.9895      Y:     4.8202      Z:    -5.9066

  Electronic Dipole Moment: [e a0]
     X:     6.6858      Y:    -3.5212      Z:     4.3916

  Dipole Moment: [e a0]
     X:    -1.3037      Y:     1.2989      Z:    -1.5151     Total:     2.3837

  Dipole Moment: [D]
     X:    -3.3137      Y:     3.3015      Z:    -3.8509     Total:     6.0589

*** tstop() called on ds3 at Mon Apr 27 16:30:43 2020
Module time:
	user time   =      34.59 seconds =       0.58 minutes
	system time =      14.96 seconds =       0.25 minutes
	total time  =         48 seconds =       0.80 minutes
Total time:
	user time   =      34.59 seconds =       0.58 minutes
	system time =      14.96 seconds =       0.25 minutes
	total time  =         48 seconds =       0.80 minutes
                                     G D M A

                                 by Anthony Stone

                           version 2.2.06, 22 June 2011

               Distributed Multipoles from Gaussian wavefunctions

Starting at 16:30:43 on 27 Apr 2020

Using SCF density matrix from file ./SSI/SSI-061ILE-155ASP-1-dimer.test.27001.fchk

                         Distributed Multipole Analysis

Standard DMA

Positions and radii in angstrom
Multipole moments in atomic units, ea_0^k for rank k

C          x = -2.367142  y = -0.270393  z =  0.291075 angstrom
           Maximum rank =  0   Radius =  0.650 angstrom
                   Q00  =  -0.161678

C          x = -3.553142  y =  0.495607  z = -0.272925 angstrom
           Maximum rank =  0   Radius =  0.650 angstrom
                   Q00  =  -0.247636

H          x = -1.846142  y = -0.804393  z = -0.502925 angstrom
           Maximum rank =  0   Radius =  0.325 angstrom
                   Q00  =   0.076587

H          x = -1.691142  y =  0.450607  z =  0.744075 angstrom
           Maximum rank =  0   Radius =  0.325 angstrom
                   Q00  =   0.085834

H          x = -2.682142  y = -0.969393  z =  1.066075 angstrom
           Maximum rank =  0   Radius =  0.325 angstrom
                   Q00  =   0.060770

H          x = -3.187142  y =  1.303607  z = -0.904925 angstrom
           Maximum rank =  0   Radius =  0.325 angstrom
                   Q00  =   0.067279

H          x = -4.067142  y =  0.963607  z =  0.568075 angstrom
           Maximum rank =  0   Radius =  0.325 angstrom
                   Q00  =   0.052569

H          x = -4.280765  y = -0.124486  z = -0.817029 angstrom
           Maximum rank =  0   Radius =  0.325 angstrom
                   Q00  =   0.051494

C          x =  1.023858  y =  0.757607  z = -0.699925 angstrom
           Maximum rank =  0   Radius =  0.650 angstrom
                   Q00  =  -0.124685

C          x =  2.386858  y =  0.723607  z = -1.400925 angstrom
           Maximum rank =  0   Radius =  0.650 angstrom
                   Q00  =  -0.203581

C          x =  0.913858  y = -0.286393  z =  0.397075 angstrom
           Maximum rank =  0   Radius =  0.650 angstrom
                   Q00  =   0.979211

O          x =  0.935858  y = -1.498393  z =  0.083075 angstrom
           Maximum rank =  0   Radius =  0.650 angstrom
                   Q00  =  -0.945291

O          x =  0.798858  y =  0.108607  z =  1.579075 angstrom
           Maximum rank =  0   Radius =  0.650 angstrom
                   Q00  =  -0.926170

H          x =  0.834858  y =  1.737607  z = -0.277925 angstrom
           Maximum rank =  0   Radius =  0.325 angstrom
                   Q00  =   0.023786

H          x =  0.242858  y =  0.564607  z = -1.430925 angstrom
           Maximum rank =  0   Radius =  0.325 angstrom
                   Q00  =   0.036453

H          x =  2.496858  y = -0.268393  z = -1.833925 angstrom
           Maximum rank =  0   Radius =  0.325 angstrom
                   Q00  =   0.078557

H          x =  3.213528  y =  0.853620  z = -0.686983 angstrom
           Maximum rank =  0   Radius =  0.325 angstrom
                   Q00  =   0.067522

H          x =  2.435025  y =  1.441806  z = -2.232713 angstrom
           Maximum rank =  0   Radius =  0.325 angstrom
                   Q00  =   0.028980

Total multipoles referred to origin at
           x =   0.000000,  y =    0.000000,  z =    0.000000 angstrom
                   Q00  =  -1.000000

Finished at 16:30:43 on 27 Apr 2020

  DMA results are available in the Python driver through the
	  variable('DMA DISTRIBUTED MULTIPOLES')
  and
	  variable('DMA TOTAL MULTIPOLES')
  commands.

    Psi4 stopped on: Monday, 27 April 2020 04:30PM
    Psi4 wall time for execution: 0:00:48.22

*** Psi4 exiting successfully. Buy a developer a beer!
