                               Psi4 1.3.2 release

  ==> Input File <==

--------------------------------------------------------------------------
import numpy as np
set {scf_type pk
basis cc-pvdz
d_convergence 10
gdma_switch   0
gdma_limit    0
gdma_origin   [ 0.0,  0.0,  0.0 ]
}
molecule test {
    units Angstrom
    0 1
    --
    0 1
    C               -1.363639608354934    -0.165839740282878    -1.250826626424149
    C               -2.364639608354934    -0.869839740282878    -2.152826626424149
    H               -1.857639608354934     0.659160259717122    -0.737826626424149
    H               -0.978639608354934    -0.868839740282878    -0.511826626424149
    H               -0.539639608354934     0.219160259717122    -1.849826626424149
    H               -3.174639608354934    -1.207839740282877    -1.506826626424149
    H               -2.771868408354934    -0.180789740282877    -2.907396626424149
    H               -1.894099508354934    -1.746889740282877    -2.621206626424149
    C                1.182360391645066     0.387160259717123     1.338173373575851
    C                2.544360391645066     0.654160259717122     2.059173373575851
    H                0.658360391645066     1.328160259717122     1.173173373575851
    H                1.353360391645066    -0.100839740282878     0.378173373575851
    H                0.554360391645066    -0.265839740282877     1.950173373575851
    H                3.053360391645066    -0.297839740282877     2.223173373575851
    H                2.374631391645066     1.141610259717122     3.030553373575851
    H                3.241009391645066     1.253620259717122     1.454753373575851

}
e, wfn = energy('scf', return_wfn=True)
gdma(wfn)
dmavals = variable('DMA DISTRIBUTED MULTIPOLES')
charges = np.array(dmavals)
print(charges)
np.save('SSI-024VAL-049ILE-1-dimer.npy', np.array(charges))--------------------------------------------------------------------------

*** tstart() called on ds3
*** at Mon Apr 27 21:40:01 2020

   => Loading Basis Set <=

    Name: CC-PVDZ
    Role: ORBITAL
    Keyword: BASIS
    atoms 1-2, 9-10  entry C          line   138 file /theoryfs2/ds/metcalf/miniconda2/envs/tf2gpu/share/psi4/basis/cc-pvdz.gbs
    atoms 3-8, 11-16 entry H          line    22 file /theoryfs2/ds/metcalf/miniconda2/envs/tf2gpu/share/psi4/basis/cc-pvdz.gbs

         ---------------------------------------------------------
                                   SCF
               by Justin Turney, Rob Parrish, Andy Simmonett
                          and Daniel G. A. Smith
                              RHF Reference
                        1 Threads,    500 MiB Core
         ---------------------------------------------------------

  ==> Geometry <==

    Molecular point group: c1
    Full point group: C1

    Geometry (in Angstrom), charge = 0, multiplicity = 1:

       Center              X                  Y                   Z               Mass
    ------------   -----------------  -----------------  -----------------  -----------------
         C           -1.363639608355    -0.165839740283    -1.250826626424    12.000000000000
         C           -2.364639608355    -0.869839740283    -2.152826626424    12.000000000000
         H           -1.857639608355     0.659160259717    -0.737826626424     1.007825032230
         H           -0.978639608355    -0.868839740283    -0.511826626424     1.007825032230
         H           -0.539639608355     0.219160259717    -1.849826626424     1.007825032230
         H           -3.174639608355    -1.207839740283    -1.506826626424     1.007825032230
         H           -2.771868408355    -0.180789740283    -2.907396626424     1.007825032230
         H           -1.894099508355    -1.746889740283    -2.621206626424     1.007825032230
         C            1.182360391645     0.387160259717     1.338173373576    12.000000000000
         C            2.544360391645     0.654160259717     2.059173373576    12.000000000000
         H            0.658360391645     1.328160259717     1.173173373576     1.007825032230
         H            1.353360391645    -0.100839740283     0.378173373576     1.007825032230
         H            0.554360391645    -0.265839740283     1.950173373576     1.007825032230
         H            3.053360391645    -0.297839740283     2.223173373576     1.007825032230
         H            2.374631391645     1.141610259717     3.030553373576     1.007825032230
         H            3.241009391645     1.253620259717     1.454753373576     1.007825032230

  Running in c1 symmetry.

  Rotational constants: A =      1.10244  B =      0.03763  C =      0.03759 [cm^-1]
  Rotational constants: A =  33050.40127  B =   1128.00451  C =   1126.93112 [MHz]
  Nuclear repulsion =  119.036520200303912

  Charge       = 0
  Multiplicity = 1
  Electrons    = 36
  Nalpha       = 18
  Nbeta        = 18

  ==> Algorithm <==

  SCF Algorithm Type is PK.
  DIIS enabled.
  MOM disabled.
  Fractional occupation disabled.
  Guess Type is SAD.
  Energy threshold   = 1.00e-06
  Density threshold  = 1.00e-10
  Integral threshold = 0.00e+00

  ==> Primary Basis <==

  Basis Set: CC-PVDZ
    Blend: CC-PVDZ
    Number of shells: 60
    Number of basis function: 116
    Number of Cartesian functions: 120
    Spherical Harmonics?: true
    Max angular momentum: 2

  ==> Pre-Iterations <==

   -------------------------------------------------------
    Irrep   Nso     Nmo     Nalpha   Nbeta   Ndocc  Nsocc
   -------------------------------------------------------
     A        116     116       0       0       0       0
   -------------------------------------------------------
    Total     116     116      18      18      18       0
   -------------------------------------------------------

  ==> Integral Setup <==

  Using integral reordering PK algorithm.
  Sizing the integral batches needed.
  Building batch lookup table.
   Calculation information:
      Number of atoms:                  16
      Number of AO shells:              60
      Number of primitives:            148
      Number of atomic orbitals:       120
      Number of basis functions:       116

      Integral cutoff                 1.00e-12
      Number of threads:                 1

	Batch   1 pq = [       0,    6786] index = [             0,23028291] size =     23028291
  Task number: 3
  Buffer size: 11059200
  Buffer per thread: 2
  We computed 1303638 shell quartets total.
  Whereas there are 1675365 unique shell quartets.

  ==> DiskJK: Disk-Based J/K Matrices <==

    J tasked:                  Yes
    K tasked:                  Yes
    wK tasked:                  No
    Memory [MiB]:              375
    Schwarz Cutoff:          1E-12

    OpenMP threads:              1

  Minimum eigenvalue in the overlap matrix is 5.9990332431E-03.
  Using Symmetric Orthogonalization.

  SCF Guess: Superposition of Atomic Densities via on-the-fly atomic UHF.

  ==> Iterations <==

                        Total Energy        Delta E     RMS |[F,P]|

   @RHF iter SAD:  -157.29713148832636   -1.57297e+02   0.00000e+00
   @RHF iter   1:  -158.30939685766467   -1.01227e+00   4.17261e-03 DIIS
   @RHF iter   2:  -158.44105489405274   -1.31658e-01   1.77074e-03 DIIS
   @RHF iter   3:  -158.46387296093286   -2.28181e-02   3.48110e-04 DIIS
   @RHF iter   4:  -158.46568840103197   -1.81544e-03   3.91695e-05 DIIS
   @RHF iter   5:  -158.46571223009570   -2.38291e-05   7.24246e-06 DIIS
   @RHF iter   6:  -158.46571294675815   -7.16662e-07   1.54308e-06 DIIS
   @RHF iter   7:  -158.46571296821131   -2.14532e-08   3.21943e-07 DIIS
   @RHF iter   8:  -158.46571296929949   -1.08818e-09   3.91815e-08 DIIS
   @RHF iter   9:  -158.46571296932461   -2.51248e-11   7.98698e-09 DIIS
   @RHF iter  10:  -158.46571296932515   -5.40012e-13   2.55061e-09 DIIS
   @RHF iter  11:  -158.46571296932572   -5.68434e-13   5.96095e-10 DIIS
   @RHF iter  12:  -158.46571296932569    2.84217e-14   1.03620e-10 DIIS
   @RHF iter  13:  -158.46571296932552    1.70530e-13   2.06727e-11 DIIS
  Energy and wave function converged.

  ==> Post-Iterations <==

    Orbital Energies [Eh]
    ---------------------

    Doubly Occupied:

       1A    -11.221523     2A    -11.219774     3A    -11.217726
       4A    -11.214835     5A     -1.020546     6A     -1.008009
       7A     -0.841571     8A     -0.832136     9A     -0.600740
      10A     -0.599563    11A     -0.593603    12A     -0.588792
      13A     -0.503437    14A     -0.493783    15A     -0.490784
      16A     -0.483967    17A     -0.483605    18A     -0.481446

    Virtual:

      19A      0.177077    20A      0.193137    21A      0.218599
      22A      0.238942    23A      0.241934    24A      0.264348
      25A      0.266735    26A      0.278603    27A      0.279798
      28A      0.291753    29A      0.297521    30A      0.308634
      31A      0.368851    32A      0.418481    33A      0.565994
      34A      0.587685    35A      0.594207    36A      0.604047
      37A      0.606251    38A      0.660740    39A      0.673382
      40A      0.694515    41A      0.709637    42A      0.733722
      43A      0.827325    44A      0.883839    45A      0.891277
      46A      0.893512    47A      0.894105    48A      0.895887
      49A      0.898258    50A      0.912103    51A      0.915907
      52A      0.919390    53A      0.925227    54A      0.947606
      55A      0.956776    56A      1.000756    57A      1.122717
      58A      1.125551    59A      1.131676    60A      1.139998
      61A      1.213347    62A      1.263182    63A      1.452988
      64A      1.465653    65A      1.477748    66A      1.488774
      67A      1.577081    68A      1.587441    69A      1.675701
      70A      1.686193    71A      1.691704    72A      1.694920
      73A      1.847392    74A      1.851342    75A      1.863980
      76A      1.884835    77A      1.887203    78A      1.910852
      79A      1.928226    80A      1.931672    81A      1.938931
      82A      1.944175    83A      1.948006    84A      1.950491
      85A      1.956904    86A      1.983903    87A      1.985979
      88A      2.078998    89A      2.088563    90A      2.095172
      91A      2.107643    92A      2.132786    93A      2.294124
      94A      2.297842    95A      2.307737    96A      2.362954
      97A      2.439408    98A      2.447550    99A      2.462604
     100A      2.481804   101A      2.540208   102A      2.560632
     103A      2.565862   104A      2.583291   105A      2.751096
     106A      2.763231   107A      2.780222   108A      2.798306
     109A      2.833169   110A      2.844718   111A      2.853948
     112A      2.861243   113A      2.927368   114A      2.943955
     115A      2.951171   116A      2.960407

    Final Occupation by Irrep:
              A
    DOCC [    18 ]

  @RHF Final Energy:  -158.46571296932552

   => Energetics <=

    Nuclear Repulsion Energy =            119.0365202003039116
    One-Electron Energy =                -447.2127870180448213
    Two-Electron Energy =                 169.7105538484153726
    Total Energy =                       -158.4657129693255229

Computation Completed

Properties will be evaluated at   0.000000,   0.000000,   0.000000 [a0]

Properties computed using the SCF density matrix

  Nuclear Dipole Moment: [e a0]
     X:     0.0174      Y:    -0.0630      Z:     0.0704

  Electronic Dipole Moment: [e a0]
     X:    -0.0216      Y:     0.0546      Z:    -0.0649

  Dipole Moment: [e a0]
     X:    -0.0042      Y:    -0.0083      Z:     0.0055     Total:     0.0108

  Dipole Moment: [D]
     X:    -0.0107      Y:    -0.0212      Z:     0.0140     Total:     0.0275

*** tstop() called on ds3 at Mon Apr 27 21:40:11 2020
Module time:
	user time   =       7.58 seconds =       0.13 minutes
	system time =       3.33 seconds =       0.06 minutes
	total time  =         10 seconds =       0.17 minutes
Total time:
	user time   =       7.58 seconds =       0.13 minutes
	system time =       3.33 seconds =       0.06 minutes
	total time  =         10 seconds =       0.17 minutes
                                     G D M A

                                 by Anthony Stone

                           version 2.2.06, 22 June 2011

               Distributed Multipoles from Gaussian wavefunctions

Starting at 21:40:11 on 27 Apr 2020

Using SCF density matrix from file ./SSI/SSI-024VAL-049ILE-1-dimer.test.23083.fchk

                         Distributed Multipole Analysis

Standard DMA

Positions and radii in angstrom
Multipole moments in atomic units, ea_0^k for rank k

C          x = -1.363640  y = -0.165840  z = -1.250827 angstrom
           Maximum rank =  0   Radius =  0.650 angstrom
                   Q00  =  -0.235419

C          x = -2.364640  y = -0.869840  z = -2.152827 angstrom
           Maximum rank =  0   Radius =  0.650 angstrom
                   Q00  =  -0.231073

H          x = -1.857640  y =  0.659160  z = -0.737827 angstrom
           Maximum rank =  0   Radius =  0.325 angstrom
                   Q00  =   0.078040

H          x = -0.978640  y = -0.868840  z = -0.511827 angstrom
           Maximum rank =  0   Radius =  0.325 angstrom
                   Q00  =   0.078775

H          x = -0.539640  y =  0.219160  z = -1.849827 angstrom
           Maximum rank =  0   Radius =  0.325 angstrom
                   Q00  =   0.075813

H          x = -3.174640  y = -1.207840  z = -1.506827 angstrom
           Maximum rank =  0   Radius =  0.325 angstrom
                   Q00  =   0.074975

H          x = -2.771868  y = -0.180790  z = -2.907397 angstrom
           Maximum rank =  0   Radius =  0.325 angstrom
                   Q00  =   0.079960

H          x = -1.894100  y = -1.746890  z = -2.621207 angstrom
           Maximum rank =  0   Radius =  0.325 angstrom
                   Q00  =   0.078234

C          x =  1.182360  y =  0.387160  z =  1.338173 angstrom
           Maximum rank =  0   Radius =  0.650 angstrom
                   Q00  =  -0.243943

C          x =  2.544360  y =  0.654160  z =  2.059173 angstrom
           Maximum rank =  0   Radius =  0.650 angstrom
                   Q00  =  -0.250287

H          x =  0.658360  y =  1.328160  z =  1.173173 angstrom
           Maximum rank =  0   Radius =  0.325 angstrom
                   Q00  =   0.083463

H          x =  1.353360  y = -0.100840  z =  0.378173 angstrom
           Maximum rank =  0   Radius =  0.325 angstrom
                   Q00  =   0.083336

H          x =  0.554360  y = -0.265840  z =  1.950173 angstrom
           Maximum rank =  0   Radius =  0.325 angstrom
                   Q00  =   0.082069

H          x =  3.053360  y = -0.297840  z =  2.223173 angstrom
           Maximum rank =  0   Radius =  0.325 angstrom
                   Q00  =   0.079708

H          x =  2.374631  y =  1.141610  z =  3.030553 angstrom
           Maximum rank =  0   Radius =  0.325 angstrom
                   Q00  =   0.083046

H          x =  3.241009  y =  1.253620  z =  1.454753 angstrom
           Maximum rank =  0   Radius =  0.325 angstrom
                   Q00  =   0.083303

Total multipoles referred to origin at
           x =   0.000000,  y =    0.000000,  z =    0.000000 angstrom
                   Q00  =  -0.000000

Finished at 21:40:11 on 27 Apr 2020

  DMA results are available in the Python driver through the
	  variable('DMA DISTRIBUTED MULTIPOLES')
  and
	  variable('DMA TOTAL MULTIPOLES')
  commands.

    Psi4 stopped on: Monday, 27 April 2020 09:40PM
    Psi4 wall time for execution: 0:00:10.50

*** Psi4 exiting successfully. Buy a developer a beer!
