                               Psi4 1.3.2 release

  ==> Input File <==

--------------------------------------------------------------------------
import numpy as np
set {scf_type pk
basis cc-pvdz
d_convergence 10
gdma_switch   0
gdma_limit    0
gdma_origin   [ 0.0,  0.0,  0.0 ]
}
molecule test {
    units Angstrom
    0 1
    --
    0 1
    C                2.137543986290254     1.495017732979738     2.016667373792124
    C                0.584543986290254     0.328017732979738    -1.271332626207876
    C                1.357543986290254     0.363017732979738    -0.099332626207876
    C               -0.208456013709746     1.433017732979738    -1.612332626207876
    C                1.347543986290254     1.494017732979738     0.734667373792124
    C               -0.224456013709746     2.565017732979738    -0.785332626207876
    C                0.556543986290254     2.597017732979738     0.386667373792124
    H                0.606543986290254    -0.541982267020262    -1.912332626207876
    H                1.970543986290254    -0.488982267020262     0.158667373792124
    H               -0.808456013709746     1.414017732979738    -2.511332626207877
    H               -0.843456013709746     3.411017732979738    -1.042332626207876
    H                2.262543986290254     2.517017732979738     2.377667373792124
    H                3.130543986290254     1.100017732979738     1.796667373792124
    H                0.539543986290254     3.472017732979738     1.019667373792124
    H                1.669923986290254     0.880867732979738     2.800347373792124
    C               -1.639456013709746    -2.532982267020262    -0.108332626207876
    C               -2.887456013709746    -3.381982267020262    -0.325332626207876
    C               -0.596456013709746    -3.249982267020262     0.755667373792124
    H               -1.186456013709746    -2.328982267020262    -1.080332626207876
    H               -1.905456013709746    -1.581982267020262     0.335667373792124
    H               -3.391456013709746    -3.546982267020262     0.627667373792124
    H               -2.570456013709746    -4.348982267020262    -0.713332626207876
    H               -0.471456013709746    -4.271982267020262     0.380667373792124
    H                0.362543986290254    -2.735982267020262     0.629667373792124
    H               -3.594343013709746    -2.903815267020262    -1.019352626207876
    H               -0.860106013709746    -3.263974267020262     1.823517373792124

}
e, wfn = energy('scf', return_wfn=True)
gdma(wfn)
dmavals = variable('DMA DISTRIBUTED MULTIPOLES')
charges = np.array(dmavals)
print(charges)
np.save('SSI-042PHE-064LYS-1-dimer.npy', np.array(charges))--------------------------------------------------------------------------

*** tstart() called on ds3
*** at Tue Apr 28 13:09:25 2020

   => Loading Basis Set <=

    Name: CC-PVDZ
    Role: ORBITAL
    Keyword: BASIS
    atoms 1-7, 16-18  entry C          line   138 file /theoryfs2/ds/metcalf/miniconda2/envs/tf2gpu/share/psi4/basis/cc-pvdz.gbs
    atoms 8-15, 19-26 entry H          line    22 file /theoryfs2/ds/metcalf/miniconda2/envs/tf2gpu/share/psi4/basis/cc-pvdz.gbs

         ---------------------------------------------------------
                                   SCF
               by Justin Turney, Rob Parrish, Andy Simmonett
                          and Daniel G. A. Smith
                              RHF Reference
                        1 Threads,    500 MiB Core
         ---------------------------------------------------------

  ==> Geometry <==

    Molecular point group: c1
    Full point group: C1

    Geometry (in Angstrom), charge = 0, multiplicity = 1:

       Center              X                  Y                   Z               Mass
    ------------   -----------------  -----------------  -----------------  -----------------
         C            2.137543986290     1.495017732980     2.016667373792    12.000000000000
         C            0.584543986290     0.328017732980    -1.271332626208    12.000000000000
         C            1.357543986290     0.363017732980    -0.099332626208    12.000000000000
         C           -0.208456013710     1.433017732980    -1.612332626208    12.000000000000
         C            1.347543986290     1.494017732980     0.734667373792    12.000000000000
         C           -0.224456013710     2.565017732980    -0.785332626208    12.000000000000
         C            0.556543986290     2.597017732980     0.386667373792    12.000000000000
         H            0.606543986290    -0.541982267020    -1.912332626208     1.007825032230
         H            1.970543986290    -0.488982267020     0.158667373792     1.007825032230
         H           -0.808456013710     1.414017732980    -2.511332626208     1.007825032230
         H           -0.843456013710     3.411017732980    -1.042332626208     1.007825032230
         H            2.262543986290     2.517017732980     2.377667373792     1.007825032230
         H            3.130543986290     1.100017732980     1.796667373792     1.007825032230
         H            0.539543986290     3.472017732980     1.019667373792     1.007825032230
         H            1.669923986290     0.880867732980     2.800347373792     1.007825032230
         C           -1.639456013710    -2.532982267020    -0.108332626208    12.000000000000
         C           -2.887456013710    -3.381982267020    -0.325332626208    12.000000000000
         C           -0.596456013710    -3.249982267020     0.755667373792    12.000000000000
         H           -1.186456013710    -2.328982267020    -1.080332626208     1.007825032230
         H           -1.905456013710    -1.581982267020     0.335667373792     1.007825032230
         H           -3.391456013710    -3.546982267020     0.627667373792     1.007825032230
         H           -2.570456013710    -4.348982267020    -0.713332626208     1.007825032230
         H           -0.471456013710    -4.271982267020     0.380667373792     1.007825032230
         H            0.362543986290    -2.735982267020     0.629667373792     1.007825032230
         H           -3.594343013710    -2.903815267020    -1.019352626208     1.007825032230
         H           -0.860106013710    -3.263974267020     1.823517373792     1.007825032230

  Running in c1 symmetry.

  Rotational constants: A =      0.05899  B =      0.01791  C =      0.01523 [cm^-1]
  Rotational constants: A =   1768.43590  B =    536.89247  C =    456.66831 [MHz]
  Nuclear repulsion =  479.046339800945589

  Charge       = 0
  Multiplicity = 1
  Electrons    = 76
  Nalpha       = 38
  Nbeta        = 38

  ==> Algorithm <==

  SCF Algorithm Type is PK.
  DIIS enabled.
  MOM disabled.
  Fractional occupation disabled.
  Guess Type is SAD.
  Energy threshold   = 1.00e-06
  Density threshold  = 1.00e-10
  Integral threshold = 0.00e+00

  ==> Primary Basis <==

  Basis Set: CC-PVDZ
    Blend: CC-PVDZ
    Number of shells: 108
    Number of basis function: 220
    Number of Cartesian functions: 230
    Spherical Harmonics?: true
    Max angular momentum: 2

  ==> Pre-Iterations <==

   -------------------------------------------------------
    Irrep   Nso     Nmo     Nalpha   Nbeta   Ndocc  Nsocc
   -------------------------------------------------------
     A        220     220       0       0       0       0
   -------------------------------------------------------
    Total     220     220      38      38      38       0
   -------------------------------------------------------

  ==> Integral Setup <==

  Using integral reordering PK algorithm.
  Sizing the integral batches needed.
  Building batch lookup table.
   Calculation information:
      Number of atoms:                  26
      Number of AO shells:             108
      Number of primitives:            300
      Number of atomic orbitals:       230
      Number of basis functions:       220

      Integral cutoff                 1.00e-12
      Number of threads:                 1

	Batch   1 pq = [       0,    9405] index = [             0,44231715] size =     44231715
	Batch   2 pq = [    9405,   13301] index = [      44231715,88464951] size =     44233236
	Batch   3 pq = [   13301,   16290] index = [      88464951,132690195] size =     44225244
	Batch   4 pq = [   16290,   18810] index = [     132690195,176917455] size =     44227260
	Batch   5 pq = [   18810,   21030] index = [     176917455,221140965] size =     44223510
	Batch   6 pq = [   21030,   23037] index = [     221140965,265363203] size =     44222238
	Batch   7 pq = [   23037,   24310] index = [     265363203,295500205] size =     30137002
  Task number: 27
  Buffer size: 11059200
  Buffer per thread: 2
  We computed 14300200 shell quartets total.
  Whereas there are 17325441 unique shell quartets.

  ==> DiskJK: Disk-Based J/K Matrices <==

    J tasked:                  Yes
    K tasked:                  Yes
    wK tasked:                  No
    Memory [MiB]:              375
    Schwarz Cutoff:          1E-12

    OpenMP threads:              1

  Minimum eigenvalue in the overlap matrix is 3.3392778024E-04.
  Using Symmetric Orthogonalization.

  SCF Guess: Superposition of Atomic Densities via on-the-fly atomic UHF.

  ==> Iterations <==

                        Total Energy        Delta E     RMS |[F,P]|

   @RHF iter SAD:  -386.74795868140455   -3.86748e+02   0.00000e+00
   @RHF iter   1:  -387.77435054244756   -1.02639e+00   2.73072e-03 DIIS
   @RHF iter   2:  -387.99104382703962   -2.16693e-01   1.14655e-03 DIIS
   @RHF iter   3:  -388.02571185542990   -3.46680e-02   2.49022e-04 DIIS
   @RHF iter   4:  -388.02858165026578   -2.86979e-03   5.17782e-05 DIIS
   @RHF iter   5:  -388.02866910137254   -8.74511e-05   1.63958e-05 DIIS
   @RHF iter   6:  -388.02867750922201   -8.40785e-06   4.87458e-06 DIIS
   @RHF iter   7:  -388.02867835635527   -8.47133e-07   1.20440e-06 DIIS
   @RHF iter   8:  -388.02867842333927   -6.69840e-08   3.17376e-07 DIIS
   @RHF iter   9:  -388.02867843364277   -1.03035e-08   1.35839e-07 DIIS
   @RHF iter  10:  -388.02867843620140   -2.55864e-09   6.86106e-08 DIIS
   @RHF iter  11:  -388.02867843696828   -7.66875e-10   2.48425e-08 DIIS
   @RHF iter  12:  -388.02867843707469   -1.06411e-10   8.21832e-09 DIIS
   @RHF iter  13:  -388.02867843707941   -4.71800e-12   3.22218e-09 DIIS
   @RHF iter  14:  -388.02867843708123   -1.81899e-12   8.26449e-10 DIIS
   @RHF iter  15:  -388.02867843708134   -1.13687e-13   3.58588e-10 DIIS
   @RHF iter  16:  -388.02867843708060    7.38964e-13   1.62088e-10 DIIS
   @RHF iter  17:  -388.02867843707998    6.25278e-13   6.96900e-11 DIIS
  Energy and wave function converged.

  ==> Post-Iterations <==

    Orbital Energies [Eh]
    ---------------------

    Doubly Occupied:

       1A    -11.243568     2A    -11.239546     3A    -11.239057
       4A    -11.234316     5A    -11.233856     6A    -11.233725
       7A    -11.230144     8A    -11.215162     9A    -11.214252
      10A    -11.212457    11A     -1.146217    12A     -1.050575
      13A     -1.042115    14A     -1.007609    15A     -0.929622
      16A     -0.920286    17A     -0.824216    18A     -0.794182
      19A     -0.792571    20A     -0.688348    21A     -0.633483
      22A     -0.627380    23A     -0.623282    24A     -0.593325
      25A     -0.581157    26A     -0.577120    27A     -0.561393
      28A     -0.543979    29A     -0.535523    30A     -0.528753
      31A     -0.486349    32A     -0.483948    33A     -0.480149
      34A     -0.468920    35A     -0.466408    36A     -0.463014
      37A     -0.329514    38A     -0.320337

    Virtual:

      39A      0.130775    40A      0.138559    41A      0.169666
      42A      0.194181    43A      0.200135    44A      0.211739
      45A      0.229204    46A      0.235724    47A      0.243382
      48A      0.247362    49A      0.259791    50A      0.267478
      51A      0.274762    52A      0.282125    53A      0.290093
      54A      0.308263    55A      0.323342    56A      0.341755
      57A      0.364878    58A      0.370645    59A      0.381956
      60A      0.427398    61A      0.452549    62A      0.457953
      63A      0.472875    64A      0.493202    65A      0.562190
      66A      0.580216    67A      0.591002    68A      0.605376
      69A      0.615615    70A      0.622207    71A      0.626001
      72A      0.633876    73A      0.675315    74A      0.691105
      75A      0.705724    76A      0.719344    77A      0.736794
      78A      0.743088    79A      0.749010    80A      0.754653
      81A      0.771221    82A      0.784626    83A      0.785886
      84A      0.794631    85A      0.811748    86A      0.836063
      87A      0.848713    88A      0.860029    89A      0.867836
      90A      0.870974    91A      0.882504    92A      0.890896
      93A      0.896066    94A      0.899578    95A      0.902208
      96A      0.906053    97A      0.912162    98A      0.918831
      99A      0.922026   100A      0.927232   101A      0.936052
     102A      0.950553   103A      0.953923   104A      0.984331
     105A      0.988306   106A      1.010803   107A      1.027227
     108A      1.056640   109A      1.109831   110A      1.125329
     111A      1.127576   112A      1.129901   113A      1.151513
     114A      1.153755   115A      1.189937   116A      1.210677
     117A      1.225559   118A      1.242579   119A      1.246167
     120A      1.258824   121A      1.290061   122A      1.302421
     123A      1.312282   124A      1.318051   125A      1.395399
     126A      1.413629   127A      1.460815   128A      1.482662
     129A      1.508292   130A      1.519095   131A      1.550054
     132A      1.560232   133A      1.602998   134A      1.630514
     135A      1.670796   136A      1.678935   137A      1.692135
     138A      1.692503   139A      1.713847   140A      1.731897
     141A      1.738130   142A      1.764588   143A      1.789318
     144A      1.805372   145A      1.840071   146A      1.863752
     147A      1.868987   148A      1.883016   149A      1.886188
     150A      1.889090   151A      1.901618   152A      1.910634
     153A      1.913143   154A      1.923992   155A      1.925417
     156A      1.932192   157A      1.937285   158A      1.952039
     159A      1.961653   160A      1.973194   161A      1.979548
     162A      1.987091   163A      1.991066   164A      2.001727
     165A      2.015318   166A      2.021246   167A      2.033848
     168A      2.046033   169A      2.062064   170A      2.074747
     171A      2.100971   172A      2.125874   173A      2.133134
     174A      2.145631   175A      2.150611   176A      2.157857
     177A      2.161819   178A      2.180968   179A      2.239250
     180A      2.270323   181A      2.282561   182A      2.288109
     183A      2.300190   184A      2.305643   185A      2.321479
     186A      2.331501   187A      2.339939   188A      2.359300
     189A      2.451789   190A      2.468472   191A      2.484295
     192A      2.501614   193A      2.522292   194A      2.538107
     195A      2.577802   196A      2.617776   197A      2.623919
     198A      2.636664   199A      2.727624   200A      2.744953
     201A      2.762030   202A      2.766428   203A      2.771197
     204A      2.773689   205A      2.786264   206A      2.803536
     207A      2.832337   208A      2.837239   209A      2.861924
     210A      2.914753   211A      2.958838   212A      2.964611
     213A      2.969289   214A      2.992285   215A      3.015974
     216A      3.066617   217A      3.138111   218A      3.179874
     219A      3.276270   220A      3.931381

    Final Occupation by Irrep:
              A
    DOCC [    38 ]

  @RHF Final Energy:  -388.02867843707998

   => Energetics <=

    Nuclear Repulsion Energy =            479.0463398009455886
    One-Electron Energy =               -1472.5583278553431228
    Two-Electron Energy =                 605.4833096173175591
    Total Energy =                       -388.0286784370799751

Computation Completed

Properties will be evaluated at   0.000000,   0.000000,   0.000000 [a0]

Properties computed using the SCF density matrix

  Nuclear Dipole Moment: [e a0]
     X:    -4.7712      Y:   -12.3921      Z:     3.4416

  Electronic Dipole Moment: [e a0]
     X:     4.8486      Y:    12.4694      Z:    -3.3397

  Dipole Moment: [e a0]
     X:     0.0774      Y:     0.0773      Z:     0.1019     Total:     0.1495

  Dipole Moment: [D]
     X:     0.1968      Y:     0.1964      Z:     0.2591     Total:     0.3801

*** tstop() called on ds3 at Tue Apr 28 13:14:41 2020
Module time:
	user time   =      99.76 seconds =       1.66 minutes
	system time =      41.81 seconds =       0.70 minutes
	total time  =        316 seconds =       5.27 minutes
Total time:
	user time   =      99.76 seconds =       1.66 minutes
	system time =      41.81 seconds =       0.70 minutes
	total time  =        316 seconds =       5.27 minutes
                                     G D M A

                                 by Anthony Stone

                           version 2.2.06, 22 June 2011

               Distributed Multipoles from Gaussian wavefunctions

Starting at 13:14:41 on 28 Apr 2020

Using SCF density matrix from file ./SSI/SSI-042PHE-064LYS-1-dimer.test.15769.fchk

                         Distributed Multipole Analysis

Standard DMA

Positions and radii in angstrom
Multipole moments in atomic units, ea_0^k for rank k

C          x =  2.137544  y =  1.495018  z =  2.016667 angstrom
           Maximum rank =  0   Radius =  0.650 angstrom
                   Q00  =  -0.195824

C          x =  0.584544  y =  0.328018  z = -1.271333 angstrom
           Maximum rank =  0   Radius =  0.650 angstrom
                   Q00  =  -0.077937

C          x =  1.357544  y =  0.363018  z = -0.099333 angstrom
           Maximum rank =  0   Radius =  0.650 angstrom
                   Q00  =  -0.015032

C          x = -0.208456  y =  1.433018  z = -1.612333 angstrom
           Maximum rank =  0   Radius =  0.650 angstrom
                   Q00  =  -0.082163

C          x =  1.347544  y =  1.494018  z =  0.734667 angstrom
           Maximum rank =  0   Radius =  0.650 angstrom
                   Q00  =  -0.101389

C          x = -0.224456  y =  2.565018  z = -0.785333 angstrom
           Maximum rank =  0   Radius =  0.650 angstrom
                   Q00  =  -0.061973

C          x =  0.556544  y =  2.597018  z =  0.386667 angstrom
           Maximum rank =  0   Radius =  0.650 angstrom
                   Q00  =  -0.090164

H          x =  0.606544  y = -0.541982  z = -1.912333 angstrom
           Maximum rank =  0   Radius =  0.325 angstrom
                   Q00  =   0.069377

H          x =  1.970544  y = -0.488982  z =  0.158667 angstrom
           Maximum rank =  0   Radius =  0.325 angstrom
                   Q00  =   0.059268

H          x = -0.808456  y =  1.414018  z = -2.511333 angstrom
           Maximum rank =  0   Radius =  0.325 angstrom
                   Q00  =   0.063842

H          x = -0.843456  y =  3.411018  z = -1.042333 angstrom
           Maximum rank =  0   Radius =  0.325 angstrom
                   Q00  =   0.067848

H          x =  2.262544  y =  2.517018  z =  2.377667 angstrom
           Maximum rank =  0   Radius =  0.325 angstrom
                   Q00  =   0.098142

H          x =  3.130544  y =  1.100018  z =  1.796667 angstrom
           Maximum rank =  0   Radius =  0.325 angstrom
                   Q00  =   0.097818

H          x =  0.539544  y =  3.472018  z =  1.019667 angstrom
           Maximum rank =  0   Radius =  0.325 angstrom
                   Q00  =   0.061526

H          x =  1.669924  y =  0.880868  z =  2.800347 angstrom
           Maximum rank =  0   Radius =  0.325 angstrom
                   Q00  =   0.105452

C          x = -1.639456  y = -2.532982  z = -0.108333 angstrom
           Maximum rank =  0   Radius =  0.650 angstrom
                   Q00  =  -0.081729

C          x = -2.887456  y = -3.381982  z = -0.325333 angstrom
           Maximum rank =  0   Radius =  0.650 angstrom
                   Q00  =  -0.244556

C          x = -0.596456  y = -3.249982  z =  0.755667 angstrom
           Maximum rank =  0   Radius =  0.650 angstrom
                   Q00  =  -0.234315

H          x = -1.186456  y = -2.328982  z = -1.080333 angstrom
           Maximum rank =  0   Radius =  0.325 angstrom
                   Q00  =   0.038784

H          x = -1.905456  y = -1.581982  z =  0.335667 angstrom
           Maximum rank =  0   Radius =  0.325 angstrom
                   Q00  =   0.060092

H          x = -3.391456  y = -3.546982  z =  0.627667 angstrom
           Maximum rank =  0   Radius =  0.325 angstrom
                   Q00  =   0.074554

H          x = -2.570456  y = -4.348982  z = -0.713333 angstrom
           Maximum rank =  0   Radius =  0.325 angstrom
                   Q00  =   0.072575

H          x = -0.471456  y = -4.271982  z =  0.380667 angstrom
           Maximum rank =  0   Radius =  0.325 angstrom
                   Q00  =   0.071330

H          x =  0.362544  y = -2.735982  z =  0.629667 angstrom
           Maximum rank =  0   Radius =  0.325 angstrom
                   Q00  =   0.079373

H          x = -3.594343  y = -2.903815  z = -1.019353 angstrom
           Maximum rank =  0   Radius =  0.325 angstrom
                   Q00  =   0.083225

H          x = -0.860106  y = -3.263974  z =  1.823517 angstrom
           Maximum rank =  0   Radius =  0.325 angstrom
                   Q00  =   0.081878

Total multipoles referred to origin at
           x =   0.000000,  y =    0.000000,  z =    0.000000 angstrom
                   Q00  =  -0.000000

Finished at 13:14:41 on 28 Apr 2020

  DMA results are available in the Python driver through the
	  variable('DMA DISTRIBUTED MULTIPOLES')
  and
	  variable('DMA TOTAL MULTIPOLES')
  commands.

    Psi4 stopped on: Tuesday, 28 April 2020 01:14PM
    Psi4 wall time for execution: 0:05:16.60

*** Psi4 exiting successfully. Buy a developer a beer!
