                               Psi4 1.3.2 release

  ==> Input File <==

--------------------------------------------------------------------------
import numpy as np
set {scf_type pk
basis cc-pvdz
d_convergence 10
gdma_switch   0
gdma_limit    0
gdma_origin   [ 0.0,  0.0,  0.0 ]
}
molecule test {
    units Angstrom
    -1 1
    --
    -1 1
    C               -0.488019831625782     4.360795132257134     1.832188422660324
    C                0.607980168374218     0.411795132257134     0.479188422660324
    C                1.581980168374219     1.271795132257134     0.966188422660324
    C               -0.720019831625782     0.823795132257135     0.416188422660324
    C                1.222980168374219     2.558795132257135     1.407188422660324
    C               -1.069019831625782     2.104795132257134     0.858188422660324
    C               -0.099019831625782     2.986795132257134     1.340188422660324
    O                0.970980168374218    -0.839204867742866     0.089188422660324
    H                1.921980168374218    -0.974204867742866     0.080188422660324
    H                2.612980168374218     0.950795132257135     1.016188422660324
    H               -1.466019831625782     0.139795132257134     0.040188422660324
    H                1.982980168374219     3.224795132257134     1.790188422660324
    H               -2.104019831625782     2.416795132257135     0.827188422660324
    H               -1.564019831625782     4.499795132257135     1.713188422660324
    H                0.022980168374218     5.101795132257134     1.217188422660324
    H               -0.210949831625782     4.539525132257134     2.881610422660324
    C               -1.030019831625782    -4.067204867742865    -2.566811577339676
    C               -0.468019831625782    -3.008204867742866    -1.612811577339676
    O               -1.165019831625782    -2.598204867742866    -0.655811577339676
    O                0.683980168374218    -2.582204867742866    -1.844811577339676
    H               -0.360019831625782    -4.930204867742866    -2.598811577339676
    H               -1.089019831625782    -3.647204867742866    -3.573811577339676
    H               -2.031409831625781    -4.410414867742865    -2.267770577339676

}
e, wfn = energy('scf', return_wfn=True)
gdma(wfn)
dmavals = variable('DMA DISTRIBUTED MULTIPOLES')
charges = np.array(dmavals)
print(charges)
np.save('SSI-163TYR-187GLU-1-dimer.npy', np.array(charges))--------------------------------------------------------------------------

*** tstart() called on ds3
*** at Mon Apr 27 22:10:57 2020

   => Loading Basis Set <=

    Name: CC-PVDZ
    Role: ORBITAL
    Keyword: BASIS
    atoms 1-7, 17-18  entry C          line   138 file /theoryfs2/ds/metcalf/miniconda2/envs/tf2gpu/share/psi4/basis/cc-pvdz.gbs
    atoms 8, 19-20    entry O          line   198 file /theoryfs2/ds/metcalf/miniconda2/envs/tf2gpu/share/psi4/basis/cc-pvdz.gbs
    atoms 9-16, 21-23 entry H          line    22 file /theoryfs2/ds/metcalf/miniconda2/envs/tf2gpu/share/psi4/basis/cc-pvdz.gbs

         ---------------------------------------------------------
                                   SCF
               by Justin Turney, Rob Parrish, Andy Simmonett
                          and Daniel G. A. Smith
                              RHF Reference
                        1 Threads,    500 MiB Core
         ---------------------------------------------------------

  ==> Geometry <==

    Molecular point group: c1
    Full point group: C1

    Geometry (in Angstrom), charge = -1, multiplicity = 1:

       Center              X                  Y                   Z               Mass
    ------------   -----------------  -----------------  -----------------  -----------------
         C           -0.488019831626     4.360795132257     1.832188422660    12.000000000000
         C            0.607980168374     0.411795132257     0.479188422660    12.000000000000
         C            1.581980168374     1.271795132257     0.966188422660    12.000000000000
         C           -0.720019831626     0.823795132257     0.416188422660    12.000000000000
         C            1.222980168374     2.558795132257     1.407188422660    12.000000000000
         C           -1.069019831626     2.104795132257     0.858188422660    12.000000000000
         C           -0.099019831626     2.986795132257     1.340188422660    12.000000000000
         O            0.970980168374    -0.839204867743     0.089188422660    15.994914619570
         H            1.921980168374    -0.974204867743     0.080188422660     1.007825032230
         H            2.612980168374     0.950795132257     1.016188422660     1.007825032230
         H           -1.466019831626     0.139795132257     0.040188422660     1.007825032230
         H            1.982980168374     3.224795132257     1.790188422660     1.007825032230
         H           -2.104019831626     2.416795132257     0.827188422660     1.007825032230
         H           -1.564019831626     4.499795132257     1.713188422660     1.007825032230
         H            0.022980168374     5.101795132257     1.217188422660     1.007825032230
         H           -0.210949831626     4.539525132257     2.881610422660     1.007825032230
         C           -1.030019831626    -4.067204867743    -2.566811577340    12.000000000000
         C           -0.468019831626    -3.008204867743    -1.612811577340    12.000000000000
         O           -1.165019831626    -2.598204867743    -0.655811577340    15.994914619570
         O            0.683980168374    -2.582204867743    -1.844811577340    15.994914619570
         H           -0.360019831626    -4.930204867743    -2.598811577340     1.007825032230
         H           -1.089019831626    -3.647204867743    -3.573811577340     1.007825032230
         H           -2.031409831626    -4.410414867743    -2.267770577340     1.007825032230

  Running in c1 symmetry.

  Rotational constants: A =      0.09358  B =      0.01121  C =      0.01028 [cm^-1]
  Rotational constants: A =   2805.33970  B =    336.06790  C =    308.25503 [MHz]
  Nuclear repulsion =  639.395921264931530

  Charge       = -1
  Multiplicity = 1
  Electrons    = 90
  Nalpha       = 45
  Nbeta        = 45

  ==> Algorithm <==

  SCF Algorithm Type is PK.
  DIIS enabled.
  MOM disabled.
  Fractional occupation disabled.
  Guess Type is SAD.
  Energy threshold   = 1.00e-06
  Density threshold  = 1.00e-10
  Integral threshold = 0.00e+00

  ==> Primary Basis <==

  Basis Set: CC-PVDZ
    Blend: CC-PVDZ
    Number of shells: 105
    Number of basis function: 223
    Number of Cartesian functions: 235
    Spherical Harmonics?: true
    Max angular momentum: 2

  ==> Pre-Iterations <==

   -------------------------------------------------------
    Irrep   Nso     Nmo     Nalpha   Nbeta   Ndocc  Nsocc
   -------------------------------------------------------
     A        223     223       0       0       0       0
   -------------------------------------------------------
    Total     223     223      45      45      45       0
   -------------------------------------------------------

  ==> Integral Setup <==

  Using integral reordering PK algorithm.
  Sizing the integral batches needed.
  Building batch lookup table.
   Calculation information:
      Number of atoms:                  23
      Number of AO shells:             105
      Number of primitives:            319
      Number of atomic orbitals:       235
      Number of basis functions:       223

      Integral cutoff                 1.00e-12
      Number of threads:                 1

	Batch   1 pq = [       0,    9405] index = [             0,44231715] size =     44231715
	Batch   2 pq = [    9405,   13301] index = [      44231715,88464951] size =     44233236
	Batch   3 pq = [   13301,   16290] index = [      88464951,132690195] size =     44225244
	Batch   4 pq = [   16290,   18810] index = [     132690195,176917455] size =     44227260
	Batch   5 pq = [   18810,   21030] index = [     176917455,221140965] size =     44223510
	Batch   6 pq = [   21030,   23037] index = [     221140965,265363203] size =     44222238
	Batch   7 pq = [   23037,   24976] index = [     265363203,311912776] size =     46549573
  Task number: 29
  Buffer size: 11059200
  Buffer per thread: 2
  We computed 11545180 shell quartets total.
  Whereas there are 15487395 unique shell quartets.

  ==> DiskJK: Disk-Based J/K Matrices <==

    J tasked:                  Yes
    K tasked:                  Yes
    wK tasked:                  No
    Memory [MiB]:              375
    Schwarz Cutoff:          1E-12

    OpenMP threads:              1

  Minimum eigenvalue in the overlap matrix is 3.2715960068E-04.
  Using Symmetric Orthogonalization.

  SCF Guess: Superposition of Atomic Densities via on-the-fly atomic UHF.

  ==> Iterations <==

                        Total Energy        Delta E     RMS |[F,P]|

   @RHF iter SAD:  -570.13011784506853   -5.70130e+02   0.00000e+00
   @RHF iter   1:  -571.48208147350158   -1.35196e+00   3.75562e-03 DIIS
   @RHF iter   2:  -571.77305503765956   -2.90974e-01   2.01133e-03 DIIS
   @RHF iter   3:  -571.84761979985524   -7.45648e-02   3.48123e-04 DIIS
   @RHF iter   4:  -571.85152575063125   -3.90595e-03   1.25221e-04 DIIS
   @RHF iter   5:  -571.85205876285977   -5.33012e-04   2.07984e-05 DIIS
   @RHF iter   6:  -571.85208116566741   -2.24028e-05   7.19187e-06 DIIS
   @RHF iter   7:  -571.85208387738123   -2.71171e-06   3.36397e-06 DIIS
   @RHF iter   8:  -571.85208449685376   -6.19473e-07   1.27563e-06 DIIS
   @RHF iter   9:  -571.85208465485994   -1.58006e-07   5.62828e-07 DIIS
   @RHF iter  10:  -571.85208468980579   -3.49459e-08   2.50217e-07 DIIS
   @RHF iter  11:  -571.85208469951465   -9.70886e-09   9.88443e-08 DIIS
   @RHF iter  12:  -571.85208470061514   -1.10049e-09   4.57327e-08 DIIS
   @RHF iter  13:  -571.85208470077635   -1.61208e-10   1.13142e-08 DIIS
   @RHF iter  14:  -571.85208470078339   -7.04858e-12   3.79134e-09 DIIS
   @RHF iter  15:  -571.85208470079169   -8.29914e-12   1.39758e-09 DIIS
   @RHF iter  16:  -571.85208470078680    4.88853e-12   6.84912e-10 DIIS
   @RHF iter  17:  -571.85208470078760   -7.95808e-13   3.35472e-10 DIIS
   @RHF iter  18:  -571.85208470078544    2.16005e-12   1.32008e-10 DIIS
   @RHF iter  19:  -571.85208470078703   -1.59162e-12   5.44019e-11 DIIS
  Energy and wave function converged.

  ==> Post-Iterations <==

    Orbital Energies [Eh]
    ---------------------

    Doubly Occupied:

       1A    -20.425091     2A    -20.253462     3A    -20.248237
       4A    -11.173950     5A    -11.141700     6A    -11.132835
       7A    -11.128786     8A    -11.126131     9A    -11.119012
      10A    -11.111194    11A    -11.107204    12A    -11.049394
      13A     -1.247624    14A     -1.140737    15A     -1.037046
      16A     -1.027403    17A     -0.929085    18A     -0.901009
      19A     -0.821997    20A     -0.791203    21A     -0.728877
      22A     -0.683020    23A     -0.602243    24A     -0.547948
      25A     -0.527294    26A     -0.496381    27A     -0.495299
      28A     -0.484815    29A     -0.471119    30A     -0.451659
      31A     -0.437174    32A     -0.409319    33A     -0.406800
      34A     -0.400670    35A     -0.395439    36A     -0.389544
      37A     -0.360114    38A     -0.346388    39A     -0.335500
      40A     -0.298124    41A     -0.225048    42A     -0.183199
      43A     -0.170805    44A     -0.162973    45A     -0.153304

    Virtual:

      46A      0.239697    47A      0.269464    48A      0.272382
      49A      0.298867    50A      0.314583    51A      0.332334
      52A      0.355061    53A      0.356186    54A      0.367425
      55A      0.385586    56A      0.397482    57A      0.417588
      58A      0.428365    59A      0.463097    60A      0.485042
      61A      0.491192    62A      0.548139    63A      0.569328
      64A      0.575528    65A      0.597327    66A      0.600822
      67A      0.624128    68A      0.711552    69A      0.713434
      70A      0.717494    71A      0.734562    72A      0.766402
      73A      0.772667    74A      0.802720    75A      0.809974
      76A      0.825570    77A      0.828697    78A      0.840187
      79A      0.844043    80A      0.852029    81A      0.872938
      82A      0.883031    83A      0.891020    84A      0.894912
      85A      0.899149    86A      0.925567    87A      0.955590
      88A      0.963816    89A      0.966164    90A      0.978019
      91A      0.981031    92A      0.984877    93A      1.005992
      94A      1.019811    95A      1.026994    96A      1.037324
      97A      1.038366    98A      1.043159    99A      1.046938
     100A      1.052142   101A      1.065479   102A      1.084908
     103A      1.129325   104A      1.141320   105A      1.151225
     106A      1.163052   107A      1.227547   108A      1.230951
     109A      1.259412   110A      1.268494   111A      1.279287
     112A      1.317237   113A      1.337296   114A      1.344137
     115A      1.356008   116A      1.359152   117A      1.381240
     118A      1.395766   119A      1.418850   120A      1.424393
     121A      1.439889   122A      1.451910   123A      1.475359
     124A      1.488128   125A      1.494285   126A      1.547856
     127A      1.571778   128A      1.572522   129A      1.601273
     130A      1.620510   131A      1.646026   132A      1.655010
     133A      1.668933   134A      1.699253   135A      1.735157
     136A      1.748787   137A      1.764799   138A      1.786147
     139A      1.812320   140A      1.838580   141A      1.844466
     142A      1.853363   143A      1.856953   144A      1.884310
     145A      1.919705   146A      1.921441   147A      1.934312
     148A      1.979463   149A      1.992590   150A      1.997870
     151A      2.022790   152A      2.031322   153A      2.038422
     154A      2.051836   155A      2.057962   156A      2.065410
     157A      2.079938   158A      2.093402   159A      2.097723
     160A      2.109080   161A      2.124451   162A      2.129767
     163A      2.162339   164A      2.172444   165A      2.176398
     166A      2.187686   167A      2.228988   168A      2.232982
     169A      2.274323   170A      2.288660   171A      2.290767
     172A      2.306264   173A      2.321973   174A      2.332395
     175A      2.352648   176A      2.383178   177A      2.405565
     178A      2.429259   179A      2.437615   180A      2.471759
     181A      2.486556   182A      2.512124   183A      2.574822
     184A      2.596262   185A      2.607424   186A      2.611711
     187A      2.633570   188A      2.642630   189A      2.699071
     190A      2.710865   191A      2.721520   192A      2.775666
     193A      2.789910   194A      2.839026   195A      2.857061
     196A      2.898240   197A      2.913028   198A      2.918923
     199A      2.936036   200A      2.960929   201A      2.992350
     202A      2.994587   203A      3.060977   204A      3.120383
     205A      3.196023   206A      3.226096   207A      3.252758
     208A      3.289380   209A      3.303561   210A      3.370688
     211A      3.392258   212A      3.409964   213A      3.513580
     214A      3.641109   215A      3.752169   216A      3.790481
     217A      3.813574   218A      3.831060   219A      4.070235
     220A      4.086864   221A      4.118996   222A      4.219374
     223A      4.360007

    Final Occupation by Irrep:
              A
    DOCC [    45 ]

  @RHF Final Energy:  -571.85208470078703

   => Energetics <=

    Nuclear Repulsion Energy =            639.3959212649315305
    One-Electron Energy =               -2064.3437054583964709
    Two-Electron Energy =                 853.0956994926779089
    Total Energy =                       -571.8520847007870316

Computation Completed

Properties will be evaluated at   0.000000,   0.000000,   0.000000 [a0]

Properties computed using the SCF density matrix

  Nuclear Dipole Moment: [e a0]
     X:    -2.1393      Y:     6.4502      Z:     1.0436

  Electronic Dipole Moment: [e a0]
     X:     2.9014      Y:    -2.4954      Z:     0.8247

  Dipole Moment: [e a0]
     X:     0.7621      Y:     3.9548      Z:     1.8683     Total:     4.4398

  Dipole Moment: [D]
     X:     1.9370      Y:    10.0520      Z:     4.7488     Total:    11.2848

*** tstop() called on ds3 at Mon Apr 27 22:14:12 2020
Module time:
	user time   =     105.38 seconds =       1.76 minutes
	system time =      54.32 seconds =       0.91 minutes
	total time  =        195 seconds =       3.25 minutes
Total time:
	user time   =     105.38 seconds =       1.76 minutes
	system time =      54.32 seconds =       0.91 minutes
	total time  =        195 seconds =       3.25 minutes
                                     G D M A

                                 by Anthony Stone

                           version 2.2.06, 22 June 2011

               Distributed Multipoles from Gaussian wavefunctions

Starting at 22:14:12 on 27 Apr 2020

Using SCF density matrix from file ./SSI/SSI-163TYR-187GLU-1-dimer.test.568.fchk

                         Distributed Multipole Analysis

Standard DMA

Positions and radii in angstrom
Multipole moments in atomic units, ea_0^k for rank k

C          x = -0.488020  y =  4.360795  z =  1.832188 angstrom
           Maximum rank =  0   Radius =  0.650 angstrom
                   Q00  =  -0.193211

C          x =  0.607980  y =  0.411795  z =  0.479188 angstrom
           Maximum rank =  0   Radius =  0.650 angstrom
                   Q00  =   0.371769

C          x =  1.581980  y =  1.271795  z =  0.966188 angstrom
           Maximum rank =  0   Radius =  0.650 angstrom
                   Q00  =  -0.160166

C          x = -0.720020  y =  0.823795  z =  0.416188 angstrom
           Maximum rank =  0   Radius =  0.650 angstrom
                   Q00  =  -0.108788

C          x =  1.222980  y =  2.558795  z =  1.407188 angstrom
           Maximum rank =  0   Radius =  0.650 angstrom
                   Q00  =  -0.080474

C          x = -1.069020  y =  2.104795  z =  0.858188 angstrom
           Maximum rank =  0   Radius =  0.650 angstrom
                   Q00  =   0.035668

C          x = -0.099020  y =  2.986795  z =  1.340188 angstrom
           Maximum rank =  0   Radius =  0.650 angstrom
                   Q00  =  -0.144865

O          x =  0.970980  y = -0.839205  z =  0.089188 angstrom
           Maximum rank =  0   Radius =  0.650 angstrom
                   Q00  =  -0.593462

H          x =  1.921980  y = -0.974205  z =  0.080188 angstrom
           Maximum rank =  0   Radius =  0.325 angstrom
                   Q00  =   0.380621

H          x =  2.612980  y =  0.950795  z =  1.016188 angstrom
           Maximum rank =  0   Radius =  0.325 angstrom
                   Q00  =   0.052916

H          x = -1.466020  y =  0.139795  z =  0.040188 angstrom
           Maximum rank =  0   Radius =  0.325 angstrom
                   Q00  =   0.106106

H          x =  1.982980  y =  3.224795  z =  1.790188 angstrom
           Maximum rank =  0   Radius =  0.325 angstrom
                   Q00  =   0.037819

H          x = -2.104020  y =  2.416795  z =  0.827188 angstrom
           Maximum rank =  0   Radius =  0.325 angstrom
                   Q00  =   0.042639

H          x = -1.564020  y =  4.499795  z =  1.713188 angstrom
           Maximum rank =  0   Radius =  0.325 angstrom
                   Q00  =   0.087090

H          x =  0.022980  y =  5.101795  z =  1.217188 angstrom
           Maximum rank =  0   Radius =  0.325 angstrom
                   Q00  =   0.079495

H          x = -0.210950  y =  4.539525  z =  2.881610 angstrom
           Maximum rank =  0   Radius =  0.325 angstrom
                   Q00  =   0.080471

C          x = -1.030020  y = -4.067205  z = -2.566812 angstrom
           Maximum rank =  0   Radius =  0.650 angstrom
                   Q00  =  -0.259247

C          x = -0.468020  y = -3.008205  z = -1.612812 angstrom
           Maximum rank =  0   Radius =  0.650 angstrom
                   Q00  =   0.919979

O          x = -1.165020  y = -2.598205  z = -0.655812 angstrom
           Maximum rank =  0   Radius =  0.650 angstrom
                   Q00  =  -0.913260

O          x =  0.683980  y = -2.582205  z = -1.844812 angstrom
           Maximum rank =  0   Radius =  0.650 angstrom
                   Q00  =  -0.913289

H          x = -0.360020  y = -4.930205  z = -2.598812 angstrom
           Maximum rank =  0   Radius =  0.325 angstrom
                   Q00  =   0.063299

H          x = -1.089020  y = -3.647205  z = -3.573812 angstrom
           Maximum rank =  0   Radius =  0.325 angstrom
                   Q00  =   0.067697

H          x = -2.031410  y = -4.410415  z = -2.267771 angstrom
           Maximum rank =  0   Radius =  0.325 angstrom
                   Q00  =   0.041192

Total multipoles referred to origin at
           x =   0.000000,  y =    0.000000,  z =    0.000000 angstrom
                   Q00  =  -1.000000

Finished at 22:14:12 on 27 Apr 2020

  DMA results are available in the Python driver through the
	  variable('DMA DISTRIBUTED MULTIPOLES')
  and
	  variable('DMA TOTAL MULTIPOLES')
  commands.

    Psi4 stopped on: Monday, 27 April 2020 10:14PM
    Psi4 wall time for execution: 0:03:15.71

*** Psi4 exiting successfully. Buy a developer a beer!
