                               Psi4 1.3.2 release

  ==> Input File <==

--------------------------------------------------------------------------
import numpy as np
set {scf_type pk
basis cc-pvdz
d_convergence 10
gdma_switch   0
gdma_limit    0
gdma_origin   [ 0.0,  0.0,  0.0 ]
}
molecule test {
    units Angstrom
    -1 1
    --
    -1 1
    C                0.755721293726095     0.802947512600995    -2.320220901849068
    C               -0.007278706273905     0.121947512600994    -3.437220901849068
    C                2.177721293726095     0.369947512600994    -2.270220901849068
    O                3.027721293726095     1.243947512600994    -1.989220901849068
    O                2.451721293726095    -0.829052487399005    -2.499220901849068
    H                0.729721293726095     1.884947512600994    -2.481220901849069
    H                0.295721293726095     0.598947512600994    -1.365220901849068
    H                0.616721293726095     0.185947512600994    -4.331220901849068
    H               -0.902668706273905     0.734817512600994    -3.617970901849068
    H               -0.174668706273905    -0.944072487399006    -3.223730901849069
    C               -2.576278706273905    -2.089052487399006     0.921779098150932
    C               -1.193278706273905    -0.001052487399006     0.798779098150932
    C               -1.845278706273905    -0.954052487399006     1.581779098150932
    C               -0.453278706273905     1.023947512600994     1.393779098150932
    C               -0.362278706273905     1.102947512600994     2.796779098150931
    C               -1.761278706273905    -0.874052487399005     2.983779098150932
    C               -1.024278706273905     0.146947512600994     3.591779098150931
    H               -1.310278706273905    -0.044052487399006    -0.270220901849068
    H                0.035721293726095     1.765947512600995     0.777779098150932
    H               -2.784278706273905    -1.849052487399005    -0.122220901849068
    H               -3.532278706273905    -2.185052487399006     1.434779098150932
    H                0.209721293726095     1.895947512600994     3.260779098150932
    H               -2.255278706273905    -1.614052487399005     3.592779098150932
    H               -0.958278706273905     0.194947512600994     4.670779098150931
    H               -2.041188706273905    -3.048172487399006     0.983076098150932

}
e, wfn = energy('scf', return_wfn=True)
gdma(wfn)
dmavals = variable('DMA DISTRIBUTED MULTIPOLES')
charges = np.array(dmavals)
print(charges)
np.save('SSI-034ASP-037PHE-1-dimer.npy', np.array(charges))--------------------------------------------------------------------------

*** tstart() called on ds3
*** at Mon Apr 27 12:48:11 2020

   => Loading Basis Set <=

    Name: CC-PVDZ
    Role: ORBITAL
    Keyword: BASIS
    atoms 1-3, 11-17  entry C          line   138 file /theoryfs2/ds/metcalf/miniconda2/envs/tf2gpu/share/psi4/basis/cc-pvdz.gbs
    atoms 4-5         entry O          line   198 file /theoryfs2/ds/metcalf/miniconda2/envs/tf2gpu/share/psi4/basis/cc-pvdz.gbs
    atoms 6-10, 18-25 entry H          line    22 file /theoryfs2/ds/metcalf/miniconda2/envs/tf2gpu/share/psi4/basis/cc-pvdz.gbs

         ---------------------------------------------------------
                                   SCF
               by Justin Turney, Rob Parrish, Andy Simmonett
                          and Daniel G. A. Smith
                              RHF Reference
                        1 Threads,    500 MiB Core
         ---------------------------------------------------------

  ==> Geometry <==

    Molecular point group: c1
    Full point group: C1

    Geometry (in Angstrom), charge = -1, multiplicity = 1:

       Center              X                  Y                   Z               Mass
    ------------   -----------------  -----------------  -----------------  -----------------
         C            0.755721293726     0.802947512601    -2.320220901849    12.000000000000
         C           -0.007278706274     0.121947512601    -3.437220901849    12.000000000000
         C            2.177721293726     0.369947512601    -2.270220901849    12.000000000000
         O            3.027721293726     1.243947512601    -1.989220901849    15.994914619570
         O            2.451721293726    -0.829052487399    -2.499220901849    15.994914619570
         H            0.729721293726     1.884947512601    -2.481220901849     1.007825032230
         H            0.295721293726     0.598947512601    -1.365220901849     1.007825032230
         H            0.616721293726     0.185947512601    -4.331220901849     1.007825032230
         H           -0.902668706274     0.734817512601    -3.617970901849     1.007825032230
         H           -0.174668706274    -0.944072487399    -3.223730901849     1.007825032230
         C           -2.576278706274    -2.089052487399     0.921779098151    12.000000000000
         C           -1.193278706274    -0.001052487399     0.798779098151    12.000000000000
         C           -1.845278706274    -0.954052487399     1.581779098151    12.000000000000
         C           -0.453278706274     1.023947512601     1.393779098151    12.000000000000
         C           -0.362278706274     1.102947512601     2.796779098151    12.000000000000
         C           -1.761278706274    -0.874052487399     2.983779098151    12.000000000000
         C           -1.024278706274     0.146947512601     3.591779098151    12.000000000000
         H           -1.310278706274    -0.044052487399    -0.270220901849     1.007825032230
         H            0.035721293726     1.765947512601     0.777779098151     1.007825032230
         H           -2.784278706274    -1.849052487399    -0.122220901849     1.007825032230
         H           -3.532278706274    -2.185052487399     1.434779098151     1.007825032230
         H            0.209721293726     1.895947512601     3.260779098151     1.007825032230
         H           -2.255278706274    -1.614052487399     3.592779098151     1.007825032230
         H           -0.958278706274     0.194947512601     4.670779098151     1.007825032230
         H           -2.041188706274    -3.048172487399     0.983076098151     1.007825032230

  Running in c1 symmetry.

  Rotational constants: A =      0.04618  B =      0.01217  C =      0.01063 [cm^-1]
  Rotational constants: A =   1384.59119  B =    364.87054  C =    318.60320 [MHz]
  Nuclear repulsion =  623.172503681537023

  Charge       = -1
  Multiplicity = 1
  Electrons    = 90
  Nalpha       = 45
  Nbeta        = 45

  ==> Algorithm <==

  SCF Algorithm Type is PK.
  DIIS enabled.
  MOM disabled.
  Fractional occupation disabled.
  Guess Type is SAD.
  Energy threshold   = 1.00e-06
  Density threshold  = 1.00e-10
  Integral threshold = 0.00e+00

  ==> Primary Basis <==

  Basis Set: CC-PVDZ
    Blend: CC-PVDZ
    Number of shells: 111
    Number of basis function: 233
    Number of Cartesian functions: 245
    Spherical Harmonics?: true
    Max angular momentum: 2

  ==> Pre-Iterations <==

   -------------------------------------------------------
    Irrep   Nso     Nmo     Nalpha   Nbeta   Ndocc  Nsocc
   -------------------------------------------------------
     A        233     233       0       0       0       0
   -------------------------------------------------------
    Total     233     233      45      45      45       0
   -------------------------------------------------------

  ==> Integral Setup <==

  Using integral reordering PK algorithm.
  Sizing the integral batches needed.
  Building batch lookup table.
   Calculation information:
      Number of atoms:                  25
      Number of AO shells:             111
      Number of primitives:            329
      Number of atomic orbitals:       245
      Number of basis functions:       233

      Integral cutoff                 1.00e-12
      Number of threads:                 1

	Batch   1 pq = [       0,    9405] index = [             0,44231715] size =     44231715
	Batch   2 pq = [    9405,   13301] index = [      44231715,88464951] size =     44233236
	Batch   3 pq = [   13301,   16290] index = [      88464951,132690195] size =     44225244
	Batch   4 pq = [   16290,   18810] index = [     132690195,176917455] size =     44227260
	Batch   5 pq = [   18810,   21030] index = [     176917455,221140965] size =     44223510
	Batch   6 pq = [   21030,   23037] index = [     221140965,265363203] size =     44222238
	Batch   7 pq = [   23037,   24883] index = [     265363203,309594286] size =     44231083
	Batch   8 pq = [   24883,   26601] index = [     309594286,353819901] size =     44225615
	Batch   9 pq = [   26601,   27261] index = [     353819901,371594691] size =     17774790
  Task number: 34
  Buffer size: 11059200
  Buffer per thread: 2
  We computed 16363307 shell quartets total.
  Whereas there are 19322436 unique shell quartets.

  ==> DiskJK: Disk-Based J/K Matrices <==

    J tasked:                  Yes
    K tasked:                  Yes
    wK tasked:                  No
    Memory [MiB]:              375
    Schwarz Cutoff:          1E-12

    OpenMP threads:              1

  Minimum eigenvalue in the overlap matrix is 3.2331424984E-04.
  Using Symmetric Orthogonalization.

  SCF Guess: Superposition of Atomic Densities via on-the-fly atomic UHF.

  ==> Iterations <==

                        Total Energy        Delta E     RMS |[F,P]|

   @RHF iter SAD:  -534.40231025159756   -5.34402e+02   0.00000e+00
   @RHF iter   1:  -535.67596103414894   -1.27365e+00   3.43475e-03 DIIS
   @RHF iter   2:  -535.95818078276204   -2.82220e-01   1.80273e-03 DIIS
   @RHF iter   3:  -536.02666369270150   -6.84829e-02   3.18078e-04 DIIS
   @RHF iter   4:  -536.03046652781848   -3.80284e-03   1.21037e-04 DIIS
   @RHF iter   5:  -536.03095392737475   -4.87400e-04   1.81427e-05 DIIS
   @RHF iter   6:  -536.03097035987980   -1.64325e-05   5.17739e-06 DIIS
   @RHF iter   7:  -536.03097163095993   -1.27108e-06   2.02885e-06 DIIS
   @RHF iter   8:  -536.03097180744373   -1.76484e-07   6.51330e-07 DIIS
   @RHF iter   9:  -536.03097183907664   -3.16329e-08   3.11673e-07 DIIS
   @RHF iter  10:  -536.03097184835667   -9.28003e-09   1.13794e-07 DIIS
   @RHF iter  11:  -536.03097185073455   -2.37787e-09   5.15872e-08 DIIS
   @RHF iter  12:  -536.03097185108015   -3.45608e-10   2.34937e-08 DIIS
   @RHF iter  13:  -536.03097185115428   -7.41238e-11   8.09564e-09 DIIS
   @RHF iter  14:  -536.03097185116690   -1.26192e-11   3.00931e-09 DIIS
   @RHF iter  15:  -536.03097185116189    5.00222e-12   1.19848e-09 DIIS
   @RHF iter  16:  -536.03097185116610   -4.20641e-12   5.35154e-10 DIIS
   @RHF iter  17:  -536.03097185116860   -2.50111e-12   2.33067e-10 DIIS
   @RHF iter  18:  -536.03097185116428    4.32010e-12   8.28967e-11 DIIS
  Energy and wave function converged.

  ==> Post-Iterations <==

    Orbital Energies [Eh]
    ---------------------

    Doubly Occupied:

       1A    -20.255956     2A    -20.252684     3A    -11.157835
       4A    -11.157442     5A    -11.151241     6A    -11.151123
       7A    -11.150087     8A    -11.148392     9A    -11.140893
      10A    -11.105715    11A    -11.073803    12A    -11.046420
      13A     -1.145650    14A     -1.062336    15A     -1.033039
      16A     -0.958172    17A     -0.924162    18A     -0.878345
      19A     -0.847133    20A     -0.738150    21A     -0.710605
      22A     -0.702802    23A     -0.604548    24A     -0.548386
      25A     -0.542978    26A     -0.513908    27A     -0.497761
      28A     -0.495748    29A     -0.477686    30A     -0.461375
      31A     -0.454262    32A     -0.429797    33A     -0.402272
      34A     -0.397776    35A     -0.395171    36A     -0.387640
      37A     -0.366292    38A     -0.354076    39A     -0.323942
      40A     -0.295214    41A     -0.244986    42A     -0.234590
      43A     -0.177517    44A     -0.168535    45A     -0.157019

    Virtual:

      46A      0.217882    47A      0.223798    48A      0.263513
      49A      0.280714    50A      0.301288    51A      0.320364
      52A      0.332309    53A      0.342228    54A      0.350042
      55A      0.357200    56A      0.386246    57A      0.400846
      58A      0.409956    59A      0.421600    60A      0.439298
      61A      0.448354    62A      0.478006    63A      0.499609
      64A      0.533338    65A      0.539317    66A      0.555183
      67A      0.565021    68A      0.590740    69A      0.617348
      70A      0.666193    71A      0.681125    72A      0.705003
      73A      0.718945    74A      0.729068    75A      0.742712
      76A      0.765360    77A      0.774079    78A      0.787319
      79A      0.801033    80A      0.808623    81A      0.822122
      82A      0.825579    83A      0.831816    84A      0.847123
      85A      0.857979    86A      0.860124    87A      0.892413
      88A      0.898308    89A      0.917366    90A      0.930143
      91A      0.942783    92A      0.950572    93A      0.953389
      94A      0.966826    95A      0.975706    96A      0.985479
      97A      0.988008    98A      0.994584    99A      1.010824
     100A      1.015373   101A      1.028848   102A      1.037456
     103A      1.043180   104A      1.055735   105A      1.060495
     106A      1.077466   107A      1.083768   108A      1.103920
     109A      1.110369   110A      1.142643   111A      1.161286
     112A      1.171215   113A      1.201558   114A      1.225678
     115A      1.237314   116A      1.253133   117A      1.278645
     118A      1.293672   119A      1.306218   120A      1.313440
     121A      1.322086   122A      1.327975   123A      1.341480
     124A      1.381955   125A      1.383254   126A      1.390382
     127A      1.396228   128A      1.424727   129A      1.444606
     130A      1.462645   131A      1.499661   132A      1.520374
     133A      1.559954   134A      1.587739   135A      1.602960
     136A      1.626083   137A      1.641072   138A      1.645759
     139A      1.662560   140A      1.671469   141A      1.699121
     142A      1.727979   143A      1.761990   144A      1.774765
     145A      1.796460   146A      1.810208   147A      1.818440
     148A      1.824571   149A      1.836190   150A      1.871810
     151A      1.888510   152A      1.890926   153A      1.930682
     154A      1.946269   155A      1.965894   156A      1.981939
     157A      1.984324   158A      1.995679   159A      2.002511
     160A      2.009809   161A      2.025771   162A      2.033152
     163A      2.046589   164A      2.056382   165A      2.065760
     166A      2.084152   167A      2.090184   168A      2.106851
     169A      2.123417   170A      2.134567   171A      2.145173
     172A      2.151870   173A      2.154149   174A      2.182235
     175A      2.196329   176A      2.223960   177A      2.224628
     178A      2.232085   179A      2.241200   180A      2.253109
     181A      2.266041   182A      2.275914   183A      2.302283
     184A      2.320010   185A      2.361625   186A      2.371186
     187A      2.377638   188A      2.380808   189A      2.386030
     190A      2.399543   191A      2.430962   192A      2.468798
     193A      2.524322   194A      2.536219   195A      2.567859
     196A      2.571455   197A      2.599234   198A      2.607547
     199A      2.614201   200A      2.639380   201A      2.704901
     202A      2.737988   203A      2.774732   204A      2.813296
     205A      2.822356   206A      2.830088   207A      2.850135
     208A      2.866410   209A      2.903719   210A      2.921246
     211A      2.927323   212A      2.947878   213A      2.995179
     214A      3.011737   215A      3.045345   216A      3.059720
     217A      3.076424   218A      3.101169   219A      3.178315
     220A      3.229003   221A      3.255596   222A      3.270451
     223A      3.289453   224A      3.328749   225A      3.373451
     226A      3.374488   227A      3.638774   228A      3.810353
     229A      3.845249   230A      4.022843   231A      4.057203
     232A      4.095746   233A      4.208573

    Final Occupation by Irrep:
              A
    DOCC [    45 ]

  @RHF Final Energy:  -536.03097185116428

   => Energetics <=

    Nuclear Repulsion Energy =            623.1725036815370231
    One-Electron Energy =               -1978.9600204901771576
    Two-Electron Energy =                 819.7565449574759668
    Total Energy =                       -536.0309718511642814

Computation Completed

Properties will be evaluated at   0.000000,   0.000000,   0.000000 [a0]

Properties computed using the SCF density matrix

  Nuclear Dipole Moment: [e a0]
     X:   -11.2902      Y:    -2.2695      Z:    -0.6701

  Electronic Dipole Moment: [e a0]
     X:     6.2825      Y:     1.9516      Z:     4.5900

  Dipole Moment: [e a0]
     X:    -5.0077      Y:    -0.3178      Z:     3.9198     Total:     6.3673

  Dipole Moment: [D]
     X:   -12.7282      Y:    -0.8078      Z:     9.9632     Total:    16.1841

*** tstop() called on ds3 at Mon Apr 27 12:51:42 2020
Module time:
	user time   =     151.56 seconds =       2.53 minutes
	system time =      68.33 seconds =       1.14 minutes
	total time  =        211 seconds =       3.52 minutes
Total time:
	user time   =     151.56 seconds =       2.53 minutes
	system time =      68.33 seconds =       1.14 minutes
	total time  =        211 seconds =       3.52 minutes
                                     G D M A

                                 by Anthony Stone

                           version 2.2.06, 22 June 2011

               Distributed Multipoles from Gaussian wavefunctions

Starting at 12:51:42 on 27 Apr 2020

Using SCF density matrix from file ./SSI/SSI-034ASP-037PHE-1-dimer.test.4126.fchk

                         Distributed Multipole Analysis

Standard DMA

Positions and radii in angstrom
Multipole moments in atomic units, ea_0^k for rank k

C          x =  0.755721  y =  0.802948  z = -2.320221 angstrom
           Maximum rank =  0   Radius =  0.650 angstrom
                   Q00  =  -0.143508

C          x = -0.007279  y =  0.121948  z = -3.437221 angstrom
           Maximum rank =  0   Radius =  0.650 angstrom
                   Q00  =  -0.195397

C          x =  2.177721  y =  0.369948  z = -2.270221 angstrom
           Maximum rank =  0   Radius =  0.650 angstrom
                   Q00  =   1.041618

O          x =  3.027721  y =  1.243948  z = -1.989221 angstrom
           Maximum rank =  0   Radius =  0.650 angstrom
                   Q00  =  -0.949688

O          x =  2.451721  y = -0.829052  z = -2.499221 angstrom
           Maximum rank =  0   Radius =  0.650 angstrom
                   Q00  =  -0.976682

H          x =  0.729721  y =  1.884948  z = -2.481221 angstrom
           Maximum rank =  0   Radius =  0.325 angstrom
                   Q00  =   0.022603

H          x =  0.295721  y =  0.598948  z = -1.365221 angstrom
           Maximum rank =  0   Radius =  0.325 angstrom
                   Q00  =   0.051672

H          x =  0.616721  y =  0.185948  z = -4.331221 angstrom
           Maximum rank =  0   Radius =  0.325 angstrom
                   Q00  =   0.081097

H          x = -0.902669  y =  0.734818  z = -3.617971 angstrom
           Maximum rank =  0   Radius =  0.325 angstrom
                   Q00  =   0.000856

H          x = -0.174669  y = -0.944072  z = -3.223731 angstrom
           Maximum rank =  0   Radius =  0.325 angstrom
                   Q00  =   0.064467

C          x = -2.576279  y = -2.089052  z =  0.921779 angstrom
           Maximum rank =  0   Radius =  0.650 angstrom
                   Q00  =  -0.199918

C          x = -1.193279  y = -0.001052  z =  0.798779 angstrom
           Maximum rank =  0   Radius =  0.650 angstrom
                   Q00  =   0.000698

C          x = -1.845279  y = -0.954052  z =  1.581779 angstrom
           Maximum rank =  0   Radius =  0.650 angstrom
                   Q00  =  -0.094171

C          x = -0.453279  y =  1.023948  z =  1.393779 angstrom
           Maximum rank =  0   Radius =  0.650 angstrom
                   Q00  =  -0.071100

C          x = -0.362279  y =  1.102948  z =  2.796779 angstrom
           Maximum rank =  0   Radius =  0.650 angstrom
                   Q00  =  -0.091701

C          x = -1.761279  y = -0.874052  z =  2.983779 angstrom
           Maximum rank =  0   Radius =  0.650 angstrom
                   Q00  =  -0.070664

C          x = -1.024279  y =  0.146948  z =  3.591779 angstrom
           Maximum rank =  0   Radius =  0.650 angstrom
                   Q00  =  -0.076007

H          x = -1.310279  y = -0.044052  z = -0.270221 angstrom
           Maximum rank =  0   Radius =  0.325 angstrom
                   Q00  =   0.078241

H          x =  0.035721  y =  1.765948  z =  0.777779 angstrom
           Maximum rank =  0   Radius =  0.325 angstrom
                   Q00  =   0.090500

H          x = -2.784279  y = -1.849052  z = -0.122221 angstrom
           Maximum rank =  0   Radius =  0.325 angstrom
                   Q00  =   0.103695

H          x = -3.532279  y = -2.185052  z =  1.434779 angstrom
           Maximum rank =  0   Radius =  0.325 angstrom
                   Q00  =   0.077796

H          x =  0.209721  y =  1.895948  z =  3.260779 angstrom
           Maximum rank =  0   Radius =  0.325 angstrom
                   Q00  =   0.057802

H          x = -2.255279  y = -1.614052  z =  3.592779 angstrom
           Maximum rank =  0   Radius =  0.325 angstrom
                   Q00  =   0.041329

H          x = -0.958279  y =  0.194948  z =  4.670779 angstrom
           Maximum rank =  0   Radius =  0.325 angstrom
                   Q00  =   0.050693

H          x = -2.041189  y = -3.048172  z =  0.983076 angstrom
           Maximum rank =  0   Radius =  0.325 angstrom
                   Q00  =   0.105770

Total multipoles referred to origin at
           x =   0.000000,  y =    0.000000,  z =    0.000000 angstrom
                   Q00  =  -1.000000

Finished at 12:51:43 on 27 Apr 2020

  DMA results are available in the Python driver through the
	  variable('DMA DISTRIBUTED MULTIPOLES')
  and
	  variable('DMA TOTAL MULTIPOLES')
  commands.

    Psi4 stopped on: Monday, 27 April 2020 12:51PM
    Psi4 wall time for execution: 0:03:31.67

*** Psi4 exiting successfully. Buy a developer a beer!
