                               Psi4 1.3.2 release

  ==> Input File <==

--------------------------------------------------------------------------
import numpy as np
set {scf_type pk
basis cc-pvdz
d_convergence 10
gdma_switch   0
gdma_limit    0
gdma_origin   [ 0.0,  0.0,  0.0 ]
}
molecule test {
    units Angstrom
    0 1
    --
    0 1
    C               -0.356182025680184     0.288519186321631     1.902171316399560
    C               -1.353182025680184    -0.839480813678369     1.699171316399560
    O               -1.546182025680184    -1.713480813678369     2.541171316399560
    N               -1.964182025680184    -0.858480813678369     0.536171316399560
    H               -2.628182025680184    -1.594480813678369     0.346171316399560
    H               -1.708182025680184    -0.185480813678369    -0.175828683600440
    H               -0.772182025680184     1.216519186321631     1.506171316399560
    H                0.534817974319816     0.048519186321631     1.323171316399560
    H               -0.093520025680184     0.441799186321631     2.959301316399560
    C                2.019817974319816     1.928519186321631    -1.121828683600440
    C                1.239817974319816     0.739519186321631    -1.640828683600440
    O                0.028817974319816     0.649519186321631    -1.432828683600440
    N                1.918817974319816    -0.146480813678369    -2.355828683600439
    H                3.067817974319816     1.664519186321631    -0.971828683600440
    H                1.596817974319816     2.187519186321631    -0.149828683600440
    H                1.416817974319816    -0.919480813678369    -2.763828683600440
    H                2.904817974319816     0.004519186321631    -2.550828683600440
    H                1.934126974319816     2.777509186321630    -1.815998683600440

}
e, wfn = energy('scf', return_wfn=True)
gdma(wfn)
dmavals = variable('DMA DISTRIBUTED MULTIPOLES')
charges = np.array(dmavals)
print(charges)
np.save('SSI-087GLN-139ASN-1-dimer.npy', np.array(charges))--------------------------------------------------------------------------

*** tstart() called on ds3
*** at Sun Apr 26 16:56:23 2020

   => Loading Basis Set <=

    Name: CC-PVDZ
    Role: ORBITAL
    Keyword: BASIS
    atoms 1-2, 10-11 entry C          line   138 file /theoryfs2/ds/metcalf/miniconda2/envs/tf2gpu/share/psi4/basis/cc-pvdz.gbs
    atoms 3, 12      entry O          line   198 file /theoryfs2/ds/metcalf/miniconda2/envs/tf2gpu/share/psi4/basis/cc-pvdz.gbs
    atoms 4, 13      entry N          line   168 file /theoryfs2/ds/metcalf/miniconda2/envs/tf2gpu/share/psi4/basis/cc-pvdz.gbs
    atoms 5-9, 14-18 entry H          line    22 file /theoryfs2/ds/metcalf/miniconda2/envs/tf2gpu/share/psi4/basis/cc-pvdz.gbs

         ---------------------------------------------------------
                                   SCF
               by Justin Turney, Rob Parrish, Andy Simmonett
                          and Daniel G. A. Smith
                              RHF Reference
                        1 Threads,    500 MiB Core
         ---------------------------------------------------------

  ==> Geometry <==

    Molecular point group: c1
    Full point group: C1

    Geometry (in Angstrom), charge = 0, multiplicity = 1:

       Center              X                  Y                   Z               Mass
    ------------   -----------------  -----------------  -----------------  -----------------
         C           -0.356182025680     0.288519186322     1.902171316400    12.000000000000
         C           -1.353182025680    -0.839480813678     1.699171316400    12.000000000000
         O           -1.546182025680    -1.713480813678     2.541171316400    15.994914619570
         N           -1.964182025680    -0.858480813678     0.536171316400    14.003074004430
         H           -2.628182025680    -1.594480813678     0.346171316400     1.007825032230
         H           -1.708182025680    -0.185480813678    -0.175828683600     1.007825032230
         H           -0.772182025680     1.216519186322     1.506171316400     1.007825032230
         H            0.534817974320     0.048519186322     1.323171316400     1.007825032230
         H           -0.093520025680     0.441799186322     2.959301316400     1.007825032230
         C            2.019817974320     1.928519186322    -1.121828683600    12.000000000000
         C            1.239817974320     0.739519186322    -1.640828683600    12.000000000000
         O            0.028817974320     0.649519186322    -1.432828683600    15.994914619570
         N            1.918817974320    -0.146480813678    -2.355828683600    14.003074004430
         H            3.067817974320     1.664519186322    -0.971828683600     1.007825032230
         H            1.596817974320     2.187519186322    -0.149828683600     1.007825032230
         H            1.416817974320    -0.919480813678    -2.763828683600     1.007825032230
         H            2.904817974320     0.004519186322    -2.550828683600     1.007825032230
         H            1.934126974320     2.777509186322    -1.815998683600     1.007825032230

  Running in c1 symmetry.

  Rotational constants: A =      0.12451  B =      0.02412  C =      0.02246 [cm^-1]
  Rotational constants: A =   3732.66306  B =    723.23304  C =    673.42477 [MHz]
  Nuclear repulsion =  364.088777662760037

  Charge       = 0
  Multiplicity = 1
  Electrons    = 64
  Nalpha       = 32
  Nbeta        = 32

  ==> Algorithm <==

  SCF Algorithm Type is PK.
  DIIS enabled.
  MOM disabled.
  Fractional occupation disabled.
  Guess Type is SAD.
  Energy threshold   = 1.00e-06
  Density threshold  = 1.00e-10
  Integral threshold = 0.00e+00

  ==> Primary Basis <==

  Basis Set: CC-PVDZ
    Blend: CC-PVDZ
    Number of shells: 78
    Number of basis function: 162
    Number of Cartesian functions: 170
    Spherical Harmonics?: true
    Max angular momentum: 2

  ==> Pre-Iterations <==

   -------------------------------------------------------
    Irrep   Nso     Nmo     Nalpha   Nbeta   Ndocc  Nsocc
   -------------------------------------------------------
     A        162     162       0       0       0       0
   -------------------------------------------------------
    Total     162     162      32      32      32       0
   -------------------------------------------------------

  ==> Integral Setup <==

  Using integral reordering PK algorithm.
  Sizing the integral batches needed.
  Building batch lookup table.
   Calculation information:
      Number of atoms:                  18
      Number of AO shells:              78
      Number of primitives:            226
      Number of atomic orbitals:       170
      Number of basis functions:       162

      Integral cutoff                 1.00e-12
      Number of threads:                 1

	Batch   1 pq = [       0,    9405] index = [             0,44231715] size =     44231715
	Batch   2 pq = [    9405,   13203] index = [      44231715,87166206] size =     42934491
  Task number: 8
  Buffer size: 11059200
  Buffer per thread: 2
  We computed 3825739 shell quartets total.
  Whereas there are 4747821 unique shell quartets.

  ==> DiskJK: Disk-Based J/K Matrices <==

    J tasked:                  Yes
    K tasked:                  Yes
    wK tasked:                  No
    Memory [MiB]:              375
    Schwarz Cutoff:          1E-12

    OpenMP threads:              1

  Minimum eigenvalue in the overlap matrix is 4.5419618366E-03.
  Using Symmetric Orthogonalization.

  SCF Guess: Superposition of Atomic Densities via on-the-fly atomic UHF.

  ==> Iterations <==

                        Total Energy        Delta E     RMS |[F,P]|

   @RHF iter SAD:  -414.55096257833242   -4.14551e+02   0.00000e+00
   @RHF iter   1:  -415.70787319980246   -1.15691e+00   4.65395e-03 DIIS
   @RHF iter   2:  -415.92050176513345   -2.12629e-01   2.71532e-03 DIIS
   @RHF iter   3:  -415.98943289089505   -6.89311e-02   5.06887e-04 DIIS
   @RHF iter   4:  -415.99355235193372   -4.11946e-03   1.94189e-04 DIIS
   @RHF iter   5:  -415.99425322729570   -7.00875e-04   3.60057e-05 DIIS
   @RHF iter   6:  -415.99430134257250   -4.81153e-05   1.79586e-05 DIIS
   @RHF iter   7:  -415.99430990589838   -8.56333e-06   6.72002e-06 DIIS
   @RHF iter   8:  -415.99431169547097   -1.78957e-06   2.03014e-06 DIIS
   @RHF iter   9:  -415.99431186446554   -1.68995e-07   5.21345e-07 DIIS
   @RHF iter  10:  -415.99431187153101   -7.06547e-09   2.67961e-07 DIIS
   @RHF iter  11:  -415.99431187274121   -1.21020e-09   4.56805e-08 DIIS
   @RHF iter  12:  -415.99431187280607   -6.48583e-11   1.40561e-08 DIIS
   @RHF iter  13:  -415.99431187281141   -5.34328e-12   4.58266e-09 DIIS
   @RHF iter  14:  -415.99431187281226   -8.52651e-13   1.66789e-09 DIIS
   @RHF iter  15:  -415.99431187281056    1.70530e-12   6.50097e-10 DIIS
   @RHF iter  16:  -415.99431187281277   -2.21689e-12   2.56944e-10 DIIS
   @RHF iter  17:  -415.99431187281033    2.44427e-12   9.73473e-11 DIIS
  Energy and wave function converged.

  ==> Post-Iterations <==

    Orbital Energies [Eh]
    ---------------------

    Doubly Occupied:

       1A    -20.526698     2A    -20.478939     3A    -15.608871
       4A    -15.557720     5A    -11.369408     6A    -11.322862
       7A    -11.256944     8A    -11.222332     9A     -1.388326
      10A     -1.345030    11A     -1.236711    12A     -1.191517
      13A     -1.016087    14A     -0.978165    15A     -0.817086
      16A     -0.773800    17A     -0.745483    18A     -0.702814
      19A     -0.673696    20A     -0.634419    21A     -0.628287
      22A     -0.593916    23A     -0.590026    24A     -0.570229
      25A     -0.545330    26A     -0.541531    27A     -0.535574
      28A     -0.500332    29A     -0.433078    30A     -0.425895
      31A     -0.386981    32A     -0.377232

    Virtual:

      33A      0.149400    34A      0.176312    35A      0.195209
      36A      0.207419    37A      0.222440    38A      0.227247
      39A      0.236685    40A      0.255783    41A      0.266510
      42A      0.272830    43A      0.298102    44A      0.324223
      45A      0.366181    46A      0.415002    47A      0.457696
      48A      0.488924    49A      0.546340    50A      0.576938
      51A      0.619282    52A      0.636535    53A      0.655300
      54A      0.658798    55A      0.691453    56A      0.698064
      57A      0.721105    58A      0.723493    59A      0.739556
      60A      0.756029    61A      0.783621    62A      0.798616
      63A      0.822674    64A      0.839654    65A      0.863369
      66A      0.891399    67A      0.897368    68A      0.909109
      69A      0.919015    70A      0.933827    71A      0.957610
      72A      0.961817    73A      0.992976    74A      1.001708
      75A      1.020911    76A      1.038727    77A      1.077755
      78A      1.098481    79A      1.116450    80A      1.129417
      81A      1.151143    82A      1.234336    83A      1.307088
      84A      1.328741    85A      1.335704    86A      1.367364
      87A      1.386755    88A      1.389832    89A      1.404529
      90A      1.409194    91A      1.425347    92A      1.449120
      93A      1.454616    94A      1.476991    95A      1.522413
      96A      1.534354    97A      1.623341    98A      1.632974
      99A      1.676145   100A      1.701112   101A      1.710598
     102A      1.748485   103A      1.795592   104A      1.832854
     105A      1.846020   106A      1.856464   107A      1.876828
     108A      1.887303   109A      1.910612   110A      1.912007
     111A      1.929122   112A      1.934547   113A      1.950260
     114A      1.973339   115A      1.998927   116A      2.019243
     117A      2.033839   118A      2.063714   119A      2.067967
     120A      2.120822   121A      2.139932   122A      2.187540
     123A      2.209355   124A      2.252936   125A      2.260142
     126A      2.289214   127A      2.401291   128A      2.427928
     129A      2.437651   130A      2.457706   131A      2.476786
     132A      2.507043   133A      2.531796   134A      2.564320
     135A      2.572453   136A      2.608564   137A      2.621622
     138A      2.672538   139A      2.733651   140A      2.736400
     141A      2.751239   142A      2.770445   143A      2.774774
     144A      2.824090   145A      2.839669   146A      2.893848
     147A      2.955356   148A      3.022063   149A      3.067825
     150A      3.112503   151A      3.115568   152A      3.161303
     153A      3.261652   154A      3.331544   155A      3.475269
     156A      3.510046   157A      3.524139   158A      3.569363
     159A      3.837400   160A      3.885815   161A      3.913885
     162A      3.938971

    Final Occupation by Irrep:
              A
    DOCC [    32 ]

  @RHF Final Energy:  -415.99431187281033

   => Energetics <=

    Nuclear Repulsion Energy =            364.0887776627600374
    One-Electron Energy =               -1290.2155436003668001
    Two-Electron Energy =                 510.1324540647963772
    Total Energy =                       -415.9943118728103286

Computation Completed

Properties will be evaluated at   0.000000,   0.000000,   0.000000 [a0]

Properties computed using the SCF density matrix

  Nuclear Dipole Moment: [e a0]
     X:     5.8550      Y:     5.2865      Z:    -2.1393

  Electronic Dipole Moment: [e a0]
     X:    -3.9492      Y:    -4.2828      Z:    -0.0432

  Dipole Moment: [e a0]
     X:     1.9058      Y:     1.0037      Z:    -2.1825     Total:     3.0664

  Dipole Moment: [D]
     X:     4.8440      Y:     2.5512      Z:    -5.5474     Total:     7.7940

*** tstop() called on ds3 at Sun Apr 26 16:57:08 2020
Module time:
	user time   =      32.48 seconds =       0.54 minutes
	system time =      12.93 seconds =       0.22 minutes
	total time  =         45 seconds =       0.75 minutes
Total time:
	user time   =      32.48 seconds =       0.54 minutes
	system time =      12.93 seconds =       0.22 minutes
	total time  =         45 seconds =       0.75 minutes
                                     G D M A

                                 by Anthony Stone

                           version 2.2.06, 22 June 2011

               Distributed Multipoles from Gaussian wavefunctions

Starting at 16:57:9 on 26 Apr 2020

Using SCF density matrix from file ./SSI/SSI-087GLN-139ASN-1-dimer.test.16959.fchk

                         Distributed Multipole Analysis

Standard DMA

Positions and radii in angstrom
Multipole moments in atomic units, ea_0^k for rank k

C          x = -0.356182  y =  0.288519  z =  1.902171 angstrom
           Maximum rank =  0   Radius =  0.650 angstrom
                   Q00  =  -0.268865

C          x = -1.353182  y = -0.839481  z =  1.699171 angstrom
           Maximum rank =  0   Radius =  0.650 angstrom
                   Q00  =   0.835538

O          x = -1.546182  y = -1.713481  z =  2.541171 angstrom
           Maximum rank =  0   Radius =  0.650 angstrom
                   Q00  =  -0.818284

N          x = -1.964182  y = -0.858481  z =  0.536171 angstrom
           Maximum rank =  0   Radius =  0.650 angstrom
                   Q00  =  -0.538942

H          x = -2.628182  y = -1.594481  z =  0.346171 angstrom
           Maximum rank =  0   Radius =  0.325 angstrom
                   Q00  =   0.211692

H          x = -1.708182  y = -0.185481  z = -0.175829 angstrom
           Maximum rank =  0   Radius =  0.325 angstrom
                   Q00  =   0.236942

H          x = -0.772182  y =  1.216519  z =  1.506171 angstrom
           Maximum rank =  0   Radius =  0.325 angstrom
                   Q00  =   0.098403

H          x =  0.534818  y =  0.048519  z =  1.323171 angstrom
           Maximum rank =  0   Radius =  0.325 angstrom
                   Q00  =   0.117466

H          x = -0.093520  y =  0.441799  z =  2.959301 angstrom
           Maximum rank =  0   Radius =  0.325 angstrom
                   Q00  =   0.115020

C          x =  2.019818  y =  1.928519  z = -1.121829 angstrom
           Maximum rank =  0   Radius =  0.650 angstrom
                   Q00  =  -0.265658

C          x =  1.239818  y =  0.739519  z = -1.640829 angstrom
           Maximum rank =  0   Radius =  0.650 angstrom
                   Q00  =   0.821506

O          x =  0.028818  y =  0.649519  z = -1.432829 angstrom
           Maximum rank =  0   Radius =  0.650 angstrom
                   Q00  =  -0.805360

N          x =  1.918818  y = -0.146481  z = -2.355829 angstrom
           Maximum rank =  0   Radius =  0.650 angstrom
                   Q00  =  -0.534840

H          x =  3.067818  y =  1.664519  z = -0.971829 angstrom
           Maximum rank =  0   Radius =  0.325 angstrom
                   Q00  =   0.084471

H          x =  1.596818  y =  2.187519  z = -0.149829 angstrom
           Maximum rank =  0   Radius =  0.325 angstrom
                   Q00  =   0.132753

H          x =  1.416818  y = -0.919481  z = -2.763829 angstrom
           Maximum rank =  0   Radius =  0.325 angstrom
                   Q00  =   0.225380

H          x =  2.904818  y =  0.004519  z = -2.550829 angstrom
           Maximum rank =  0   Radius =  0.325 angstrom
                   Q00  =   0.216748

H          x =  1.934127  y =  2.777509  z = -1.815999 angstrom
           Maximum rank =  0   Radius =  0.325 angstrom
                   Q00  =   0.136029

Total multipoles referred to origin at
           x =   0.000000,  y =    0.000000,  z =    0.000000 angstrom
                   Q00  =  -0.000000

Finished at 16:57:9 on 26 Apr 2020

  DMA results are available in the Python driver through the
	  variable('DMA DISTRIBUTED MULTIPOLES')
  and
	  variable('DMA TOTAL MULTIPOLES')
  commands.

    Psi4 stopped on: Sunday, 26 April 2020 04:57PM
    Psi4 wall time for execution: 0:00:45.66

*** Psi4 exiting successfully. Buy a developer a beer!
