                               Psi4 1.3.2 release

  ==> Input File <==

--------------------------------------------------------------------------
import numpy as np
set {scf_type pk
basis cc-pvdz
d_convergence 10
gdma_switch   0
gdma_limit    0
gdma_origin   [ 0.0,  0.0,  0.0 ]
}
molecule test {
    units Angstrom
    0 1
    --
    0 1
    C               -0.962507105556819     0.594744203972678     0.480583955280094
    C               -0.952507105556819     1.250744203972678     1.812583955280094
    H               -0.271507105556819     1.218744203972678    -0.074416044719906
    H               -0.612507105556819    -0.390255796027322     0.781583955280094
    H               -1.962507105556819     0.557744203972678     0.051583955280094
    H                0.080492894443181     1.388744203972678     2.138583955280094
    H               -1.436507105556819     0.567744203972678     2.513583955280093
    H               -1.479476105556819     2.216134203972678     1.830581955280093
    C                0.252492894443181    -0.757255796027322    -1.405416044719906
    C                1.658492894443181    -1.074255796027322    -0.881416044719906
    H                0.236492894443181    -1.214255796027322    -2.397416044719907
    H               -0.554507105556819    -1.338255796027322    -0.957416044719906
    H                0.100492894443181     0.268744203972678    -1.723416044719907
    H                1.712492894443181    -0.772255796027322     0.160583955280094
    H                2.410682894443181    -0.509575796027322    -1.451817044719907
    H                1.824322894443181    -2.159675796027322    -0.947460044719906

}
e, wfn = energy('scf', return_wfn=True)
gdma(wfn)
dmavals = variable('DMA DISTRIBUTED MULTIPOLES')
charges = np.array(dmavals)
print(charges)
np.save('SSI-046ILE-074LEU-1-dimer.npy', np.array(charges))--------------------------------------------------------------------------

*** tstart() called on ds3
*** at Mon Apr 27 16:52:59 2020

   => Loading Basis Set <=

    Name: CC-PVDZ
    Role: ORBITAL
    Keyword: BASIS
    atoms 1-2, 9-10  entry C          line   138 file /theoryfs2/ds/metcalf/miniconda2/envs/tf2gpu/share/psi4/basis/cc-pvdz.gbs
    atoms 3-8, 11-16 entry H          line    22 file /theoryfs2/ds/metcalf/miniconda2/envs/tf2gpu/share/psi4/basis/cc-pvdz.gbs

         ---------------------------------------------------------
                                   SCF
               by Justin Turney, Rob Parrish, Andy Simmonett
                          and Daniel G. A. Smith
                              RHF Reference
                        1 Threads,    500 MiB Core
         ---------------------------------------------------------

  ==> Geometry <==

    Molecular point group: c1
    Full point group: C1

    Geometry (in Angstrom), charge = 0, multiplicity = 1:

       Center              X                  Y                   Z               Mass
    ------------   -----------------  -----------------  -----------------  -----------------
         C           -0.962507105557     0.594744203973     0.480583955280    12.000000000000
         C           -0.952507105557     1.250744203973     1.812583955280    12.000000000000
         H           -0.271507105557     1.218744203973    -0.074416044720     1.007825032230
         H           -0.612507105557    -0.390255796027     0.781583955280     1.007825032230
         H           -1.962507105557     0.557744203973     0.051583955280     1.007825032230
         H            0.080492894443     1.388744203973     2.138583955280     1.007825032230
         H           -1.436507105557     0.567744203973     2.513583955280     1.007825032230
         H           -1.479476105557     2.216134203973     1.830581955280     1.007825032230
         C            0.252492894443    -0.757255796027    -1.405416044720    12.000000000000
         C            1.658492894443    -1.074255796027    -0.881416044720    12.000000000000
         H            0.236492894443    -1.214255796027    -2.397416044720     1.007825032230
         H           -0.554507105557    -1.338255796027    -0.957416044720     1.007825032230
         H            0.100492894443     0.268744203973    -1.723416044720     1.007825032230
         H            1.712492894443    -0.772255796027     0.160583955280     1.007825032230
         H            2.410682894443    -0.509575796027    -1.451817044720     1.007825032230
         H            1.824322894443    -2.159675796027    -0.947460044720     1.007825032230

  Running in c1 symmetry.

  Rotational constants: A =      0.47704  B =      0.07906  C =      0.07175 [cm^-1]
  Rotational constants: A =  14301.31486  B =   2370.05343  C =   2150.91683 [MHz]
  Nuclear repulsion =  133.699593703686560

  Charge       = 0
  Multiplicity = 1
  Electrons    = 36
  Nalpha       = 18
  Nbeta        = 18

  ==> Algorithm <==

  SCF Algorithm Type is PK.
  DIIS enabled.
  MOM disabled.
  Fractional occupation disabled.
  Guess Type is SAD.
  Energy threshold   = 1.00e-06
  Density threshold  = 1.00e-10
  Integral threshold = 0.00e+00

  ==> Primary Basis <==

  Basis Set: CC-PVDZ
    Blend: CC-PVDZ
    Number of shells: 60
    Number of basis function: 116
    Number of Cartesian functions: 120
    Spherical Harmonics?: true
    Max angular momentum: 2

  ==> Pre-Iterations <==

   -------------------------------------------------------
    Irrep   Nso     Nmo     Nalpha   Nbeta   Ndocc  Nsocc
   -------------------------------------------------------
     A        116     116       0       0       0       0
   -------------------------------------------------------
    Total     116     116      18      18      18       0
   -------------------------------------------------------

  ==> Integral Setup <==

  Using integral reordering PK algorithm.
  Sizing the integral batches needed.
  Building batch lookup table.
   Calculation information:
      Number of atoms:                  16
      Number of AO shells:              60
      Number of primitives:            148
      Number of atomic orbitals:       120
      Number of basis functions:       116

      Integral cutoff                 1.00e-12
      Number of threads:                 1

	Batch   1 pq = [       0,    6786] index = [             0,23028291] size =     23028291
  Task number: 3
  Buffer size: 11059200
  Buffer per thread: 2
  We computed 1667411 shell quartets total.
  Whereas there are 1675365 unique shell quartets.

  ==> DiskJK: Disk-Based J/K Matrices <==

    J tasked:                  Yes
    K tasked:                  Yes
    wK tasked:                  No
    Memory [MiB]:              375
    Schwarz Cutoff:          1E-12

    OpenMP threads:              1

  Minimum eigenvalue in the overlap matrix is 5.2206034042E-03.
  Using Symmetric Orthogonalization.

  SCF Guess: Superposition of Atomic Densities via on-the-fly atomic UHF.

  ==> Iterations <==

                        Total Energy        Delta E     RMS |[F,P]|

   @RHF iter SAD:  -157.66864879135051   -1.57669e+02   0.00000e+00
   @RHF iter   1:  -158.24340975021886   -5.74761e-01   4.37483e-03 DIIS
   @RHF iter   2:  -158.38715583621573   -1.43746e-01   1.88027e-03 DIIS
   @RHF iter   3:  -158.41260367244485   -2.54478e-02   3.63017e-04 DIIS
   @RHF iter   4:  -158.41454613530760   -1.94246e-03   4.34371e-05 DIIS
   @RHF iter   5:  -158.41457328121217   -2.71459e-05   1.03737e-05 DIIS
   @RHF iter   6:  -158.41457457978106   -1.29857e-06   2.59610e-06 DIIS
   @RHF iter   7:  -158.41457465030908   -7.05280e-08   4.96863e-07 DIIS
   @RHF iter   8:  -158.41457465410878   -3.79970e-09   1.03193e-07 DIIS
   @RHF iter   9:  -158.41457465430136   -1.92586e-10   2.62104e-08 DIIS
   @RHF iter  10:  -158.41457465431372   -1.23634e-11   5.41153e-09 DIIS
   @RHF iter  11:  -158.41457465431358    1.42109e-13   1.65952e-09 DIIS
   @RHF iter  12:  -158.41457465431421   -6.25278e-13   4.20844e-10 DIIS
   @RHF iter  13:  -158.41457465431407    1.42109e-13   6.83841e-11 DIIS
  Energy and wave function converged.

  ==> Post-Iterations <==

    Orbital Energies [Eh]
    ---------------------

    Doubly Occupied:

       1A    -11.220484     2A    -11.207766     3A    -11.206574
       4A    -11.205344     5A     -1.037265     6A     -1.013630
       7A     -0.846637     8A     -0.816135     9A     -0.629017
      10A     -0.611087    11A     -0.598651    12A     -0.579629
      13A     -0.511222    14A     -0.505375    15A     -0.491107
      16A     -0.478989    17A     -0.469880    18A     -0.431037

    Virtual:

      19A      0.168964    20A      0.206042    21A      0.220066
      22A      0.240383    23A      0.248075    24A      0.258682
      25A      0.261290    26A      0.272019    27A      0.285513
      28A      0.307363    29A      0.325678    30A      0.341698
      31A      0.392920    32A      0.427639    33A      0.581509
      34A      0.602256    35A      0.611128    36A      0.620948
      37A      0.635116    38A      0.640169    39A      0.670342
      40A      0.765040    41A      0.782627    42A      0.827897
      43A      0.859636    44A      0.877876    45A      0.884347
      46A      0.894878    47A      0.902369    48A      0.904188
      49A      0.909864    50A      0.918471    51A      0.929019
      52A      0.947918    53A      0.960541    54A      0.966124
      55A      0.981733    56A      1.002241    57A      1.096390
      58A      1.124378    59A      1.165853    60A      1.251474
      61A      1.262340    62A      1.390947    63A      1.423725
      64A      1.444620    65A      1.521367    66A      1.540492
      67A      1.620949    68A      1.648622    69A      1.683591
      70A      1.686694    71A      1.695124    72A      1.733814
      73A      1.840241    74A      1.849804    75A      1.880620
      76A      1.890225    77A      1.908392    78A      1.916063
      79A      1.929307    80A      1.931343    81A      1.952169
      82A      1.965971    83A      1.991115    84A      1.998045
      85A      2.035497    86A      2.065377    87A      2.079900
      88A      2.107051    89A      2.124215    90A      2.157405
      91A      2.207597    92A      2.242592    93A      2.256145
      94A      2.310511    95A      2.334651    96A      2.390619
      97A      2.467920    98A      2.471439    99A      2.498430
     100A      2.512729   101A      2.545270   102A      2.563220
     103A      2.604119   104A      2.635045   105A      2.765733
     106A      2.766904   107A      2.798732   108A      2.811318
     109A      2.835355   110A      2.846973   111A      2.851195
     112A      2.872556   113A      2.938827   114A      2.989731
     115A      3.000046   116A      3.102357

    Final Occupation by Irrep:
              A
    DOCC [    18 ]

  @RHF Final Energy:  -158.41457465431407

   => Energetics <=

    Nuclear Repulsion Energy =            133.6995937036865598
    One-Electron Energy =                -476.5086789001895795
    Two-Electron Energy =                 184.3945105421889537
    Total Energy =                       -158.4145746543140660

Computation Completed

Properties will be evaluated at   0.000000,   0.000000,   0.000000 [a0]

Properties computed using the SCF density matrix

  Nuclear Dipole Moment: [e a0]
     X:     0.0450      Y:    -0.1560      Z:    -0.0707

  Electronic Dipole Moment: [e a0]
     X:    -0.0534      Y:     0.1261      Z:     0.0027

  Dipole Moment: [e a0]
     X:    -0.0084      Y:    -0.0299      Z:    -0.0680     Total:     0.0747

  Dipole Moment: [D]
     X:    -0.0214      Y:    -0.0760      Z:    -0.1728     Total:     0.1900

*** tstop() called on ds3 at Mon Apr 27 16:53:11 2020
Module time:
	user time   =       9.04 seconds =       0.15 minutes
	system time =       2.94 seconds =       0.05 minutes
	total time  =         12 seconds =       0.20 minutes
Total time:
	user time   =       9.04 seconds =       0.15 minutes
	system time =       2.94 seconds =       0.05 minutes
	total time  =         12 seconds =       0.20 minutes
                                     G D M A

                                 by Anthony Stone

                           version 2.2.06, 22 June 2011

               Distributed Multipoles from Gaussian wavefunctions

Starting at 16:53:11 on 27 Apr 2020

Using SCF density matrix from file ./SSI/SSI-046ILE-074LEU-1-dimer.test.28408.fchk

                         Distributed Multipole Analysis

Standard DMA

Positions and radii in angstrom
Multipole moments in atomic units, ea_0^k for rank k

C          x = -0.962507  y =  0.594744  z =  0.480584 angstrom
           Maximum rank =  0   Radius =  0.650 angstrom
                   Q00  =  -0.243548

C          x = -0.952507  y =  1.250744  z =  1.812584 angstrom
           Maximum rank =  0   Radius =  0.650 angstrom
                   Q00  =  -0.163027

H          x = -0.271507  y =  1.218744  z = -0.074416 angstrom
           Maximum rank =  0   Radius =  0.325 angstrom
                   Q00  =   0.047967

H          x = -0.612507  y = -0.390256  z =  0.781584 angstrom
           Maximum rank =  0   Radius =  0.325 angstrom
                   Q00  =   0.050112

H          x = -1.962507  y =  0.557744  z =  0.051584 angstrom
           Maximum rank =  0   Radius =  0.325 angstrom
                   Q00  =   0.079935

H          x =  0.080493  y =  1.388744  z =  2.138584 angstrom
           Maximum rank =  0   Radius =  0.325 angstrom
                   Q00  =   0.071750

H          x = -1.436507  y =  0.567744  z =  2.513584 angstrom
           Maximum rank =  0   Radius =  0.325 angstrom
                   Q00  =   0.064966

H          x = -1.479476  y =  2.216134  z =  1.830582 angstrom
           Maximum rank =  0   Radius =  0.325 angstrom
                   Q00  =   0.069917

C          x =  0.252493  y = -0.757256  z = -1.405416 angstrom
           Maximum rank =  0   Radius =  0.650 angstrom
                   Q00  =  -0.174591

C          x =  1.658493  y = -1.074256  z = -0.881416 angstrom
           Maximum rank =  0   Radius =  0.650 angstrom
                   Q00  =  -0.217599

H          x =  0.236493  y = -1.214256  z = -2.397416 angstrom
           Maximum rank =  0   Radius =  0.325 angstrom
                   Q00  =   0.046394

H          x = -0.554507  y = -1.338256  z = -0.957416 angstrom
           Maximum rank =  0   Radius =  0.325 angstrom
                   Q00  =   0.068046

H          x =  0.100493  y =  0.268744  z = -1.723416 angstrom
           Maximum rank =  0   Radius =  0.325 angstrom
                   Q00  =   0.066846

H          x =  1.712493  y = -0.772256  z =  0.160584 angstrom
           Maximum rank =  0   Radius =  0.325 angstrom
                   Q00  =   0.067803

H          x =  2.410683  y = -0.509576  z = -1.451817 angstrom
           Maximum rank =  0   Radius =  0.325 angstrom
                   Q00  =   0.084050

H          x =  1.824323  y = -2.159676  z = -0.947460 angstrom
           Maximum rank =  0   Radius =  0.325 angstrom
                   Q00  =   0.080979

Total multipoles referred to origin at
           x =   0.000000,  y =    0.000000,  z =    0.000000 angstrom
                   Q00  =  -0.000000

Finished at 16:53:11 on 27 Apr 2020

  DMA results are available in the Python driver through the
	  variable('DMA DISTRIBUTED MULTIPOLES')
  and
	  variable('DMA TOTAL MULTIPOLES')
  commands.

    Psi4 stopped on: Monday, 27 April 2020 04:53PM
    Psi4 wall time for execution: 0:00:12.02

*** Psi4 exiting successfully. Buy a developer a beer!
