                               Psi4 1.3.2 release

  ==> Input File <==

--------------------------------------------------------------------------
import numpy as np
set {scf_type pk
basis cc-pvdz
d_convergence 10
gdma_switch   0
gdma_limit    0
gdma_origin   [ 0.0,  0.0,  0.0 ]
}
molecule test {
    units Angstrom
    0 1
    --
    0 1
    C               -1.509334652695804    -2.177029398809271     2.466528332983687
    C               -0.470334652695804     0.524970601190729    -0.018471667016313
    C               -1.115334652695803    -0.150029398809271     1.032528332983687
    C                0.491665347304196    -0.159029398809271    -0.769471667016313
    C               -0.805334652695804    -1.485029398809271     1.322528332983687
    C                0.803665347304196    -1.489029398809271    -0.477471667016313
    C                0.176665347304196    -2.148029398809271     0.568528332983687
    H               -0.719334652695804     1.553970601190729    -0.238471667016313
    H               -1.865334652695803     0.364970601190729     1.614528332983687
    H                1.007665347304197     0.328970601190729    -1.581471667016313
    H                1.557665347304196    -2.004029398809271    -1.052471667016313
    H               -1.437334652695804    -1.562029398809271     3.365528332983687
    H               -0.993334652695804    -3.113029398809271     2.672528332983687
    H                0.433665347304196    -3.176029398809271     0.786528332983687
    H               -2.572758652695804    -2.374145398809271     2.265838332983686
    C                0.533665347304196     3.095970601190729    -2.400471667016313
    C                1.710665347304196     3.233970601190729    -1.412471667016313
    H                0.697665347304196     3.732970601190729    -3.265471667016313
    H                0.490665347304196     2.070970601190729    -2.762471667016313
    H               -0.405334652695804     3.354970601190729    -1.913471667016313
    H                1.551665347304196     2.586970601190729    -0.551471667016313
    H                1.833989347304196     4.277640601190730    -1.087601667016313
    H                2.611448347304196     2.926820601190729    -1.964061667016313

}
e, wfn = energy('scf', return_wfn=True)
gdma(wfn)
dmavals = variable('DMA DISTRIBUTED MULTIPOLES')
charges = np.array(dmavals)
print(charges)
np.save('SSI-109PHE-185VAL-1-dimer.npy', np.array(charges))--------------------------------------------------------------------------

*** tstart() called on ds3
*** at Tue Apr 28 11:16:34 2020

   => Loading Basis Set <=

    Name: CC-PVDZ
    Role: ORBITAL
    Keyword: BASIS
    atoms 1-7, 16-17  entry C          line   138 file /theoryfs2/ds/metcalf/miniconda2/envs/tf2gpu/share/psi4/basis/cc-pvdz.gbs
    atoms 8-15, 18-23 entry H          line    22 file /theoryfs2/ds/metcalf/miniconda2/envs/tf2gpu/share/psi4/basis/cc-pvdz.gbs

         ---------------------------------------------------------
                                   SCF
               by Justin Turney, Rob Parrish, Andy Simmonett
                          and Daniel G. A. Smith
                              RHF Reference
                        1 Threads,    500 MiB Core
         ---------------------------------------------------------

  ==> Geometry <==

    Molecular point group: c1
    Full point group: C1

    Geometry (in Angstrom), charge = 0, multiplicity = 1:

       Center              X                  Y                   Z               Mass
    ------------   -----------------  -----------------  -----------------  -----------------
         C           -1.509334652696    -2.177029398809     2.466528332984    12.000000000000
         C           -0.470334652696     0.524970601191    -0.018471667016    12.000000000000
         C           -1.115334652696    -0.150029398809     1.032528332984    12.000000000000
         C            0.491665347304    -0.159029398809    -0.769471667016    12.000000000000
         C           -0.805334652696    -1.485029398809     1.322528332984    12.000000000000
         C            0.803665347304    -1.489029398809    -0.477471667016    12.000000000000
         C            0.176665347304    -2.148029398809     0.568528332984    12.000000000000
         H           -0.719334652696     1.553970601191    -0.238471667016     1.007825032230
         H           -1.865334652696     0.364970601191     1.614528332984     1.007825032230
         H            1.007665347304     0.328970601191    -1.581471667016     1.007825032230
         H            1.557665347304    -2.004029398809    -1.052471667016     1.007825032230
         H           -1.437334652696    -1.562029398809     3.365528332984     1.007825032230
         H           -0.993334652696    -3.113029398809     2.672528332984     1.007825032230
         H            0.433665347304    -3.176029398809     0.786528332984     1.007825032230
         H           -2.572758652696    -2.374145398809     2.265838332984     1.007825032230
         C            0.533665347304     3.095970601191    -2.400471667016    12.000000000000
         C            1.710665347304     3.233970601191    -1.412471667016    12.000000000000
         H            0.697665347304     3.732970601191    -3.265471667016     1.007825032230
         H            0.490665347304     2.070970601191    -2.762471667016     1.007825032230
         H           -0.405334652696     3.354970601191    -1.913471667016     1.007825032230
         H            1.551665347304     2.586970601191    -0.551471667016     1.007825032230
         H            1.833989347304     4.277640601191    -1.087601667016     1.007825032230
         H            2.611448347304     2.926820601191    -1.964061667016     1.007825032230

  Running in c1 symmetry.

  Rotational constants: A =      0.12201  B =      0.02104  C =      0.01900 [cm^-1]
  Rotational constants: A =   3657.76344  B =    630.81047  C =    569.74799 [MHz]
  Nuclear repulsion =  406.459349772654093

  Charge       = 0
  Multiplicity = 1
  Electrons    = 68
  Nalpha       = 34
  Nbeta        = 34

  ==> Algorithm <==

  SCF Algorithm Type is PK.
  DIIS enabled.
  MOM disabled.
  Fractional occupation disabled.
  Guess Type is SAD.
  Energy threshold   = 1.00e-06
  Density threshold  = 1.00e-10
  Integral threshold = 0.00e+00

  ==> Primary Basis <==

  Basis Set: CC-PVDZ
    Blend: CC-PVDZ
    Number of shells: 96
    Number of basis function: 196
    Number of Cartesian functions: 205
    Spherical Harmonics?: true
    Max angular momentum: 2

  ==> Pre-Iterations <==

   -------------------------------------------------------
    Irrep   Nso     Nmo     Nalpha   Nbeta   Ndocc  Nsocc
   -------------------------------------------------------
     A        196     196       0       0       0       0
   -------------------------------------------------------
    Total     196     196      34      34      34       0
   -------------------------------------------------------

  ==> Integral Setup <==

  Using integral reordering PK algorithm.
  Sizing the integral batches needed.
  Building batch lookup table.
   Calculation information:
      Number of atoms:                  23
      Number of AO shells:              96
      Number of primitives:            268
      Number of atomic orbitals:       205
      Number of basis functions:       196

      Integral cutoff                 1.00e-12
      Number of threads:                 1

	Batch   1 pq = [       0,    9405] index = [             0,44231715] size =     44231715
	Batch   2 pq = [    9405,   13301] index = [      44231715,88464951] size =     44233236
	Batch   3 pq = [   13301,   16290] index = [      88464951,132690195] size =     44225244
	Batch   4 pq = [   16290,   18810] index = [     132690195,176917455] size =     44227260
	Batch   5 pq = [   18810,   19306] index = [     176917455,186370471] size =      9453016
  Task number: 17
  Buffer size: 11059200
  Buffer per thread: 2
  We computed 9170781 shell quartets total.
  Whereas there are 10841496 unique shell quartets.

  ==> DiskJK: Disk-Based J/K Matrices <==

    J tasked:                  Yes
    K tasked:                  Yes
    wK tasked:                  No
    Memory [MiB]:              375
    Schwarz Cutoff:          1E-12

    OpenMP threads:              1

  Minimum eigenvalue in the overlap matrix is 3.1781904477E-04.
  Using Symmetric Orthogonalization.

  SCF Guess: Superposition of Atomic Densities via on-the-fly atomic UHF.

  ==> Iterations <==

                        Total Energy        Delta E     RMS |[F,P]|

   @RHF iter SAD:  -347.82512467966973   -3.47825e+02   0.00000e+00
   @RHF iter   1:  -348.76834275581615   -9.43218e-01   2.85562e-03 DIIS
   @RHF iter   2:  -348.95883006851147   -1.90487e-01   1.15892e-03 DIIS
   @RHF iter   3:  -348.98723291384215   -2.84028e-02   2.55995e-04 DIIS
   @RHF iter   4:  -348.98967372683921   -2.44081e-03   4.99493e-05 DIIS
   @RHF iter   5:  -348.98974008139481   -6.63546e-05   1.68386e-05 DIIS
   @RHF iter   6:  -348.98974704893624   -6.96754e-06   4.50170e-06 DIIS
   @RHF iter   7:  -348.98974761910358   -5.70167e-07   1.26909e-06 DIIS
   @RHF iter   8:  -348.98974766738223   -4.82787e-08   2.90685e-07 DIIS
   @RHF iter   9:  -348.98974767172564   -4.34341e-09   1.22834e-07 DIIS
   @RHF iter  10:  -348.98974767253856   -8.12918e-10   5.41374e-08 DIIS
   @RHF iter  11:  -348.98974767282664   -2.88082e-10   2.20429e-08 DIIS
   @RHF iter  12:  -348.98974767288348   -5.68434e-11   1.04115e-08 DIIS
   @RHF iter  13:  -348.98974767289144   -7.95808e-12   3.93572e-09 DIIS
   @RHF iter  14:  -348.98974767289383   -2.38742e-12   1.12738e-09 DIIS
   @RHF iter  15:  -348.98974767289263    1.19371e-12   3.62855e-10 DIIS
   @RHF iter  16:  -348.98974767289286   -2.27374e-13   8.11152e-11 DIIS
  Energy and wave function converged.

  ==> Post-Iterations <==

    Orbital Energies [Eh]
    ---------------------

    Doubly Occupied:

       1A    -11.242939     2A    -11.238579     3A    -11.234881
       4A    -11.232386     5A    -11.232073     6A    -11.231797
       7A    -11.229526     8A    -11.219681     9A    -11.218576
      10A     -1.148561    11A     -1.041426    12A     -1.017534
      13A     -1.010508    14A     -0.929338    15A     -0.838368
      16A     -0.823476    17A     -0.794987    18A     -0.690810
      19A     -0.633325    20A     -0.628963    21A     -0.601890
      22A     -0.598563    23A     -0.582018    24A     -0.574409
      25A     -0.557831    26A     -0.535539    27A     -0.497879
      28A     -0.492667    29A     -0.488212    30A     -0.484237
      31A     -0.481818    32A     -0.479130    33A     -0.331939
      34A     -0.319361

    Virtual:

      35A      0.132883    36A      0.140052    37A      0.177085
      38A      0.192886    39A      0.210957    40A      0.221640
      41A      0.238064    42A      0.241540    43A      0.256336
      44A      0.259622    45A      0.268769    46A      0.272525
      47A      0.290663    48A      0.297418    49A      0.332132
      50A      0.346175    51A      0.364812    52A      0.378209
      53A      0.390823    54A      0.449010    55A      0.464265
      56A      0.474517    57A      0.496142    58A      0.560693
      59A      0.597952    60A      0.602036    61A      0.617424
      62A      0.628666    63A      0.640195    64A      0.660652
      65A      0.681474    66A      0.694361    67A      0.713829
      68A      0.714545    69A      0.734588    70A      0.738121
      71A      0.742212    72A      0.745173    73A      0.765037
      74A      0.781873    75A      0.800561    76A      0.823653
      77A      0.833781    78A      0.850831    79A      0.856428
      80A      0.863927    81A      0.877019    82A      0.886665
      83A      0.888979    84A      0.896481    85A      0.908374
      86A      0.915585    87A      0.923200    88A      0.928382
      89A      0.939156    90A      0.942978    91A      0.948034
      92A      0.975834    93A      0.995106    94A      1.013130
      95A      1.026748    96A      1.073615    97A      1.116074
      98A      1.126926    99A      1.138971   100A      1.150781
     101A      1.156676   102A      1.176952   103A      1.205225
     104A      1.230547   105A      1.234613   106A      1.245869
     107A      1.256689   108A      1.280767   109A      1.304357
     110A      1.311448   111A      1.320779   112A      1.325490
     113A      1.415440   114A      1.474636   115A      1.477118
     116A      1.505410   117A      1.530850   118A      1.550367
     119A      1.586147   120A      1.629893   121A      1.678838
     122A      1.683771   123A      1.695354   124A      1.706571
     125A      1.737200   126A      1.746211   127A      1.756156
     128A      1.787561   129A      1.808964   130A      1.849301
     131A      1.860369   132A      1.868738   133A      1.883470
     134A      1.893139   135A      1.901522   136A      1.906415
     137A      1.911163   138A      1.929493   139A      1.935232
     140A      1.943000   141A      1.948087   142A      1.954710
     143A      1.962211   144A      1.977909   145A      1.983025
     146A      1.990896   147A      2.010378   148A      2.020320
     149A      2.036936   150A      2.041825   151A      2.076334
     152A      2.104959   153A      2.106512   154A      2.124510
     155A      2.138348   156A      2.170999   157A      2.185691
     158A      2.198921   159A      2.220807   160A      2.241626
     161A      2.268472   162A      2.286222   163A      2.297793
     164A      2.303276   165A      2.323731   166A      2.344964
     167A      2.366088   168A      2.441557   169A      2.457378
     170A      2.458395   171A      2.480247   172A      2.517210
     173A      2.528952   174A      2.571076   175A      2.603921
     176A      2.625007   177A      2.725901   178A      2.758749
     179A      2.769638   180A      2.775540   181A      2.788017
     182A      2.805557   183A      2.807853   184A      2.835990
     185A      2.846496   186A      2.851923   187A      2.889761
     188A      2.950164   189A      2.971966   190A      2.980067
     191A      2.995059   192A      3.032467   193A      3.147950
     194A      3.195325   195A      3.292671   196A      3.949654

    Final Occupation by Irrep:
              A
    DOCC [    34 ]

  @RHF Final Energy:  -348.98974767289286

   => Energetics <=

    Nuclear Repulsion Energy =            406.4593497726540932
    One-Electron Energy =               -1275.5717414317055045
    Two-Electron Energy =                 520.1226439861584367
    Total Energy =                       -348.9897476728929178

Computation Completed

Properties will be evaluated at   0.000000,   0.000000,   0.000000 [a0]

Properties computed using the SCF density matrix

  Nuclear Dipole Moment: [e a0]
     X:     2.0540      Y:     8.4082      Z:    -3.4799

  Electronic Dipole Moment: [e a0]
     X:    -2.1121      Y:    -8.4719      Z:     3.5805

  Dipole Moment: [e a0]
     X:    -0.0581      Y:    -0.0637      Z:     0.1006     Total:     0.1325

  Dipole Moment: [D]
     X:    -0.1476      Y:    -0.1620      Z:     0.2556     Total:     0.3367

*** tstop() called on ds3 at Tue Apr 28 11:18:06 2020
Module time:
	user time   =      66.31 seconds =       1.11 minutes
	system time =      28.84 seconds =       0.48 minutes
	total time  =         92 seconds =       1.53 minutes
Total time:
	user time   =      66.31 seconds =       1.11 minutes
	system time =      28.84 seconds =       0.48 minutes
	total time  =         92 seconds =       1.53 minutes
                                     G D M A

                                 by Anthony Stone

                           version 2.2.06, 22 June 2011

               Distributed Multipoles from Gaussian wavefunctions

Starting at 11:18:6 on 28 Apr 2020

Using SCF density matrix from file ./SSI/SSI-109PHE-185VAL-1-dimer.test.4759.fchk

                         Distributed Multipole Analysis

Standard DMA

Positions and radii in angstrom
Multipole moments in atomic units, ea_0^k for rank k

C          x = -1.509335  y = -2.177029  z =  2.466528 angstrom
           Maximum rank =  0   Radius =  0.650 angstrom
                   Q00  =  -0.205767

C          x = -0.470335  y =  0.524971  z = -0.018472 angstrom
           Maximum rank =  0   Radius =  0.650 angstrom
                   Q00  =  -0.077564

C          x = -1.115335  y = -0.150029  z =  1.032528 angstrom
           Maximum rank =  0   Radius =  0.650 angstrom
                   Q00  =  -0.073424

C          x =  0.491665  y = -0.159029  z = -0.769472 angstrom
           Maximum rank =  0   Radius =  0.650 angstrom
                   Q00  =  -0.065576

C          x = -0.805335  y = -1.485029  z =  1.322528 angstrom
           Maximum rank =  0   Radius =  0.650 angstrom
                   Q00  =  -0.099955

C          x =  0.803665  y = -1.489029  z = -0.477472 angstrom
           Maximum rank =  0   Radius =  0.650 angstrom
                   Q00  =  -0.014021

C          x =  0.176665  y = -2.148029  z =  0.568528 angstrom
           Maximum rank =  0   Radius =  0.650 angstrom
                   Q00  =  -0.076246

H          x = -0.719335  y =  1.553971  z = -0.238472 angstrom
           Maximum rank =  0   Radius =  0.325 angstrom
                   Q00  =   0.069057

H          x = -1.865335  y =  0.364971  z =  1.614528 angstrom
           Maximum rank =  0   Radius =  0.325 angstrom
                   Q00  =   0.056349

H          x =  1.007665  y =  0.328971  z = -1.581472 angstrom
           Maximum rank =  0   Radius =  0.325 angstrom
                   Q00  =   0.061005

H          x =  1.557665  y = -2.004029  z = -1.052472 angstrom
           Maximum rank =  0   Radius =  0.325 angstrom
                   Q00  =   0.064294

H          x = -1.437335  y = -1.562029  z =  3.365528 angstrom
           Maximum rank =  0   Radius =  0.325 angstrom
                   Q00  =   0.099790

H          x = -0.993335  y = -3.113029  z =  2.672528 angstrom
           Maximum rank =  0   Radius =  0.325 angstrom
                   Q00  =   0.096715

H          x =  0.433665  y = -3.176029  z =  0.786528 angstrom
           Maximum rank =  0   Radius =  0.325 angstrom
                   Q00  =   0.060623

H          x = -2.572759  y = -2.374145  z =  2.265838 angstrom
           Maximum rank =  0   Radius =  0.325 angstrom
                   Q00  =   0.103883

C          x =  0.533665  y =  3.095971  z = -2.400472 angstrom
           Maximum rank =  0   Radius =  0.650 angstrom
                   Q00  =  -0.242520

C          x =  1.710665  y =  3.233971  z = -1.412472 angstrom
           Maximum rank =  0   Radius =  0.650 angstrom
                   Q00  =  -0.242383

H          x =  0.697665  y =  3.732971  z = -3.265472 angstrom
           Maximum rank =  0   Radius =  0.325 angstrom
                   Q00  =   0.084311

H          x =  0.490665  y =  2.070971  z = -2.762472 angstrom
           Maximum rank =  0   Radius =  0.325 angstrom
                   Q00  =   0.076371

H          x = -0.405335  y =  3.354971  z = -1.913472 angstrom
           Maximum rank =  0   Radius =  0.325 angstrom
                   Q00  =   0.078309

H          x =  1.551665  y =  2.586971  z = -0.551472 angstrom
           Maximum rank =  0   Radius =  0.325 angstrom
                   Q00  =   0.089077

H          x =  1.833989  y =  4.277641  z = -1.087602 angstrom
           Maximum rank =  0   Radius =  0.325 angstrom
                   Q00  =   0.082239

H          x =  2.611448  y =  2.926821  z = -1.964062 angstrom
           Maximum rank =  0   Radius =  0.325 angstrom
                   Q00  =   0.075433

Total multipoles referred to origin at
           x =   0.000000,  y =    0.000000,  z =    0.000000 angstrom
                   Q00  =  -0.000000

Finished at 11:18:6 on 28 Apr 2020

  DMA results are available in the Python driver through the
	  variable('DMA DISTRIBUTED MULTIPOLES')
  and
	  variable('DMA TOTAL MULTIPOLES')
  commands.

    Psi4 stopped on: Tuesday, 28 April 2020 11:18AM
    Psi4 wall time for execution: 0:01:32.09

*** Psi4 exiting successfully. Buy a developer a beer!
