                               Psi4 1.3.2 release

  ==> Input File <==

--------------------------------------------------------------------------
import numpy as np
set {scf_type pk
basis cc-pvdz
d_convergence 10
gdma_switch   0
gdma_limit    0
gdma_origin   [ 0.0,  0.0,  0.0 ]
}
molecule test {
    units Angstrom
    0 1
    --
    0 1
    C               -1.409287173891396     0.990625007888495    -0.279511821428334
    C               -0.057287173891396     1.094625007888495    -2.687511821428334
    S                0.141712826108604     1.582625007888495    -0.961511821428334
    H               -1.501287173891396    -0.080374992111505    -0.427511821428334
    H               -1.399287173891396     1.222625007888495     0.776488178571666
    H               -2.254287173891397     1.485625007888495    -0.755511821428334
    H               -0.291287173891396     0.032625007888495    -2.740511821428334
    H                0.894712826108604     1.255625007888495    -3.188511821428334
    H               -0.844317173891396     1.656585007888495    -3.211711821428334
    C               -0.145287173891396    -1.849374992111505     1.783488178571666
    C                0.802712826108604    -1.510374992111505     2.944488178571666
    C                0.560712826108604    -2.166374992111505     0.448488178571666
    H               -0.749287173891396    -2.710374992111505     2.073488178571666
    H               -0.814287173891396    -1.003374992111505     1.632488178571666
    H                1.390712826108604    -2.405374992111505     3.158488178571665
    H                1.207712826108604    -1.329374992111505     0.182488178571666
    H                1.193712826108604    -3.045374992111505     0.589488178571666
    H                0.228462826108604    -1.250644992111505     3.846028178571665
    H                1.518812826108604    -0.725324992111505     2.660058178571665
    H               -0.117677173891396    -2.339884992111505    -0.399851821428334

}
e, wfn = energy('scf', return_wfn=True)
gdma(wfn)
dmavals = variable('DMA DISTRIBUTED MULTIPOLES')
charges = np.array(dmavals)
print(charges)
np.save('SSI-081MET-134GLU-1-dimer.npy', np.array(charges))--------------------------------------------------------------------------

*** tstart() called on ds3
*** at Tue Apr 28 00:15:17 2020

   => Loading Basis Set <=

    Name: CC-PVDZ
    Role: ORBITAL
    Keyword: BASIS
    atoms 1-2, 10-12 entry C          line   138 file /theoryfs2/ds/metcalf/miniconda2/envs/tf2gpu/share/psi4/basis/cc-pvdz.gbs
    atoms 3          entry S          line   598 file /theoryfs2/ds/metcalf/miniconda2/envs/tf2gpu/share/psi4/basis/cc-pvdz.gbs
    atoms 4-9, 13-20 entry H          line    22 file /theoryfs2/ds/metcalf/miniconda2/envs/tf2gpu/share/psi4/basis/cc-pvdz.gbs

         ---------------------------------------------------------
                                   SCF
               by Justin Turney, Rob Parrish, Andy Simmonett
                          and Daniel G. A. Smith
                              RHF Reference
                        1 Threads,    500 MiB Core
         ---------------------------------------------------------

  ==> Geometry <==

    Molecular point group: c1
    Full point group: C1

    Geometry (in Angstrom), charge = 0, multiplicity = 1:

       Center              X                  Y                   Z               Mass
    ------------   -----------------  -----------------  -----------------  -----------------
         C           -1.409287173891     0.990625007888    -0.279511821428    12.000000000000
         C           -0.057287173891     1.094625007888    -2.687511821428    12.000000000000
         S            0.141712826109     1.582625007888    -0.961511821428    31.972071174400
         H           -1.501287173891    -0.080374992112    -0.427511821428     1.007825032230
         H           -1.399287173891     1.222625007888     0.776488178572     1.007825032230
         H           -2.254287173891     1.485625007888    -0.755511821428     1.007825032230
         H           -0.291287173891     0.032625007888    -2.740511821428     1.007825032230
         H            0.894712826109     1.255625007888    -3.188511821428     1.007825032230
         H           -0.844317173891     1.656585007888    -3.211711821428     1.007825032230
         C           -0.145287173891    -1.849374992112     1.783488178572    12.000000000000
         C            0.802712826109    -1.510374992112     2.944488178572    12.000000000000
         C            0.560712826109    -2.166374992112     0.448488178572    12.000000000000
         H           -0.749287173891    -2.710374992112     2.073488178572     1.007825032230
         H           -0.814287173891    -1.003374992112     1.632488178572     1.007825032230
         H            1.390712826109    -2.405374992112     3.158488178572     1.007825032230
         H            1.207712826109    -1.329374992112     0.182488178572     1.007825032230
         H            1.193712826109    -3.045374992112     0.589488178572     1.007825032230
         H            0.228462826109    -1.250644992112     3.846028178572     1.007825032230
         H            1.518812826109    -0.725324992112     2.660058178572     1.007825032230
         H           -0.117677173891    -2.339884992112    -0.399851821428     1.007825032230

  Running in c1 symmetry.

  Rotational constants: A =      0.13708  B =      0.02905  C =      0.02744 [cm^-1]
  Rotational constants: A =   4109.43982  B =    870.84019  C =    822.64870 [MHz]
  Nuclear repulsion =  296.388765903751562

  Charge       = 0
  Multiplicity = 1
  Electrons    = 60
  Nalpha       = 30
  Nbeta        = 30

  ==> Algorithm <==

  SCF Algorithm Type is PK.
  DIIS enabled.
  MOM disabled.
  Fractional occupation disabled.
  Guess Type is SAD.
  Energy threshold   = 1.00e-06
  Density threshold  = 1.00e-10
  Integral threshold = 0.00e+00

  ==> Primary Basis <==

  Basis Set: CC-PVDZ
    Blend: CC-PVDZ
    Number of shells: 80
    Number of basis function: 158
    Number of Cartesian functions: 164
    Spherical Harmonics?: true
    Max angular momentum: 2

  ==> Pre-Iterations <==

   -------------------------------------------------------
    Irrep   Nso     Nmo     Nalpha   Nbeta   Ndocc  Nsocc
   -------------------------------------------------------
     A        158     158       0       0       0       0
   -------------------------------------------------------
    Total     158     158      30      30      30       0
   -------------------------------------------------------

  ==> Integral Setup <==

  Using integral reordering PK algorithm.
  Sizing the integral batches needed.
  Building batch lookup table.
   Calculation information:
      Number of atoms:                  20
      Number of AO shells:              80
      Number of primitives:            230
      Number of atomic orbitals:       164
      Number of basis functions:       158

      Integral cutoff                 1.00e-12
      Number of threads:                 1

	Batch   1 pq = [       0,    9405] index = [             0,44231715] size =     44231715
	Batch   2 pq = [    9405,   12561] index = [      44231715,78895641] size =     34663926
  Task number: 8
  Buffer size: 11059200
  Buffer per thread: 2
  We computed 4859949 shell quartets total.
  Whereas there are 5250420 unique shell quartets.

  ==> DiskJK: Disk-Based J/K Matrices <==

    J tasked:                  Yes
    K tasked:                  Yes
    wK tasked:                  No
    Memory [MiB]:              375
    Schwarz Cutoff:          1E-12

    OpenMP threads:              1

  Minimum eigenvalue in the overlap matrix is 5.7750835773E-03.
  Using Symmetric Orthogonalization.

  SCF Guess: Superposition of Atomic Densities via on-the-fly atomic UHF.

  ==> Iterations <==

                        Total Energy        Delta E     RMS |[F,P]|

   @RHF iter SAD:  -593.88972521277708   -5.93890e+02   0.00000e+00
   @RHF iter   1:  -594.85256258511379   -9.62837e-01   3.13490e-03 DIIS
   @RHF iter   2:  -595.00119377129329   -1.48631e-01   1.27525e-03 DIIS
   @RHF iter   3:  -595.02378105355422   -2.25873e-02   2.98583e-04 DIIS
   @RHF iter   4:  -595.02604444475298   -2.26339e-03   4.95265e-05 DIIS
   @RHF iter   5:  -595.02609610911054   -5.16644e-05   1.27255e-05 DIIS
   @RHF iter   6:  -595.02609955187097   -3.44276e-06   2.72378e-06 DIIS
   @RHF iter   7:  -595.02609973006395   -1.78193e-07   5.81047e-07 DIIS
   @RHF iter   8:  -595.02609974220798   -1.21440e-08   1.68370e-07 DIIS
   @RHF iter   9:  -595.02609974307313   -8.65157e-10   5.30431e-08 DIIS
   @RHF iter  10:  -595.02609974315624   -8.31051e-11   1.55549e-08 DIIS
   @RHF iter  11:  -595.02609974316158   -5.34328e-12   3.36497e-09 DIIS
   @RHF iter  12:  -595.02609974316408   -2.50111e-12   1.15113e-09 DIIS
   @RHF iter  13:  -595.02609974316329    7.95808e-13   3.34753e-10 DIIS
   @RHF iter  14:  -595.02609974316306    2.27374e-13   1.11299e-10 DIIS
   @RHF iter  15:  -595.02609974316454   -1.47793e-12   3.71197e-11 DIIS
  Energy and wave function converged.

  ==> Post-Iterations <==

    Orbital Energies [Eh]
    ---------------------

    Doubly Occupied:

       1A    -91.936865     2A    -11.256660     3A    -11.253591
       4A    -11.219913     5A    -11.217366     6A    -11.214616
       7A     -8.940709     8A     -6.622812     9A     -6.621178
      10A     -6.618947    11A     -1.064241    12A     -1.046869
      13A     -0.953649    14A     -0.921541    15A     -0.806795
      16A     -0.795373    17A     -0.624586    18A     -0.605897
      19A     -0.599708    20A     -0.591311    21A     -0.579192
      22A     -0.561642    23A     -0.544249    24A     -0.525693
      25A     -0.495710    26A     -0.475524    27A     -0.466407
      28A     -0.461522    29A     -0.430371    30A     -0.332398

    Virtual:

      31A      0.165543    32A      0.180285    33A      0.203317
      34A      0.211229    35A      0.232163    36A      0.236074
      37A      0.246550    38A      0.255767    39A      0.266135
      40A      0.269147    41A      0.280098    42A      0.284730
      43A      0.297051    44A      0.313374    45A      0.314022
      46A      0.334778    47A      0.377424    48A      0.426251
      49A      0.518733    50A      0.558853    51A      0.571660
      52A      0.582677    53A      0.593281    54A      0.613895
      55A      0.626502    56A      0.635104    57A      0.641648
      58A      0.690595    59A      0.697819    60A      0.761744
      61A      0.777416    62A      0.785242    63A      0.806583
      64A      0.811747    65A      0.829263    66A      0.840939
      67A      0.850796    68A      0.864974    69A      0.868554
      70A      0.878367    71A      0.889942    72A      0.890726
      73A      0.895586    74A      0.902248    75A      0.909774
      76A      0.920624    77A      0.928990    78A      0.933121
      79A      0.945989    80A      0.961645    81A      0.967487
      82A      1.009154    83A      1.016570    84A      1.059375
      85A      1.118535    86A      1.144607    87A      1.176813
      88A      1.212459    89A      1.257786    90A      1.306302
      91A      1.316183    92A      1.354713    93A      1.371297
      94A      1.400245    95A      1.449287    96A      1.457879
      97A      1.489862    98A      1.523660    99A      1.537354
     100A      1.620996   101A      1.662677   102A      1.671081
     103A      1.683837   104A      1.692033   105A      1.704671
     106A      1.838015   107A      1.868483   108A      1.878414
     109A      1.886659   110A      1.895577   111A      1.898077
     112A      1.916916   113A      1.927282   114A      1.932716
     115A      1.950468   116A      1.956768   117A      1.963013
     118A      1.977199   119A      1.983835   120A      1.992170
     121A      1.996367   122A      2.003552   123A      2.012547
     124A      2.024341   125A      2.025082   126A      2.030270
     127A      2.079739   128A      2.121031   129A      2.169964
     130A      2.223071   131A      2.240167   132A      2.279468
     133A      2.313821   134A      2.324968   135A      2.335568
     136A      2.401531   137A      2.437473   138A      2.444380
     139A      2.477584   140A      2.498866   141A      2.533955
     142A      2.587810   143A      2.601613   144A      2.638506
     145A      2.732906   146A      2.752019   147A      2.764266
     148A      2.768321   149A      2.778037   150A      2.796218
     151A      2.803634   152A      2.808133   153A      2.822663
     154A      2.847749   155A      2.921188   156A      2.969245
     157A      2.979273   158A      3.065359

    Final Occupation by Irrep:
              A
    DOCC [    30 ]

  @RHF Final Energy:  -595.02609974316454

   => Energetics <=

    Nuclear Repulsion Energy =            296.3887659037515618
    One-Electron Energy =               -1403.2590636321970123
    Two-Electron Energy =                 511.8441979852808572
    Total Energy =                       -595.0260997431645364

Computation Completed

Properties will be evaluated at   0.000000,   0.000000,   0.000000 [a0]

Properties computed using the SCF density matrix

  Nuclear Dipole Moment: [e a0]
     X:    -1.4377      Y:    -8.6177      Z:     3.9077

  Electronic Dipole Moment: [e a0]
     X:     0.9556      Y:     8.3466      Z:    -4.2177

  Dipole Moment: [e a0]
     X:    -0.4821      Y:    -0.2711      Z:    -0.3100     Total:     0.6341

  Dipole Moment: [D]
     X:    -1.2254      Y:    -0.6889      Z:    -0.7881     Total:     1.6116

*** tstop() called on ds3 at Tue Apr 28 00:16:29 2020
Module time:
	user time   =      32.90 seconds =       0.55 minutes
	system time =       9.42 seconds =       0.16 minutes
	total time  =         72 seconds =       1.20 minutes
Total time:
	user time   =      32.90 seconds =       0.55 minutes
	system time =       9.42 seconds =       0.16 minutes
	total time  =         72 seconds =       1.20 minutes
                                     G D M A

                                 by Anthony Stone

                           version 2.2.06, 22 June 2011

               Distributed Multipoles from Gaussian wavefunctions

Starting at 0:16:29 on 28 Apr 2020

Using SCF density matrix from file ./SSI/SSI-081MET-134GLU-1-dimer.test.5020.fchk

                         Distributed Multipole Analysis

Standard DMA

Positions and radii in angstrom
Multipole moments in atomic units, ea_0^k for rank k

C          x = -1.409287  y =  0.990625  z = -0.279512 angstrom
           Maximum rank =  0   Radius =  0.650 angstrom
                   Q00  =  -0.349548

C          x = -0.057287  y =  1.094625  z = -2.687512 angstrom
           Maximum rank =  0   Radius =  0.650 angstrom
                   Q00  =  -0.363457

S          x =  0.141713  y =  1.582625  z = -0.961512 angstrom
           Maximum rank =  0   Radius =  0.650 angstrom
                   Q00  =   0.123442

H          x = -1.501287  y = -0.080375  z = -0.427512 angstrom
           Maximum rank =  0   Radius =  0.325 angstrom
                   Q00  =   0.084757

H          x = -1.399287  y =  1.222625  z =  0.776488 angstrom
           Maximum rank =  0   Radius =  0.325 angstrom
                   Q00  =   0.119675

H          x = -2.254287  y =  1.485625  z = -0.755512 angstrom
           Maximum rank =  0   Radius =  0.325 angstrom
                   Q00  =   0.087375

H          x = -0.291287  y =  0.032625  z = -2.740512 angstrom
           Maximum rank =  0   Radius =  0.325 angstrom
                   Q00  =   0.086618

H          x =  0.894713  y =  1.255625  z = -3.188512 angstrom
           Maximum rank =  0   Radius =  0.325 angstrom
                   Q00  =   0.120340

H          x = -0.844317  y =  1.656585  z = -3.211712 angstrom
           Maximum rank =  0   Radius =  0.325 angstrom
                   Q00  =   0.089822

C          x = -0.145287  y = -1.849375  z =  1.783488 angstrom
           Maximum rank =  0   Radius =  0.650 angstrom
                   Q00  =  -0.084924

C          x =  0.802713  y = -1.510375  z =  2.944488 angstrom
           Maximum rank =  0   Radius =  0.650 angstrom
                   Q00  =  -0.245850

C          x =  0.560713  y = -2.166375  z =  0.448488 angstrom
           Maximum rank =  0   Radius =  0.650 angstrom
                   Q00  =  -0.244084

H          x = -0.749287  y = -2.710375  z =  2.073488 angstrom
           Maximum rank =  0   Radius =  0.325 angstrom
                   Q00  =   0.044904

H          x = -0.814287  y = -1.003375  z =  1.632488 angstrom
           Maximum rank =  0   Radius =  0.325 angstrom
                   Q00  =   0.041516

H          x =  1.390713  y = -2.405375  z =  3.158488 angstrom
           Maximum rank =  0   Radius =  0.325 angstrom
                   Q00  =   0.073698

H          x =  1.207713  y = -1.329375  z =  0.182488 angstrom
           Maximum rank =  0   Radius =  0.325 angstrom
                   Q00  =   0.089932

H          x =  1.193713  y = -3.045375  z =  0.589488 angstrom
           Maximum rank =  0   Radius =  0.325 angstrom
                   Q00  =   0.075308

H          x =  0.228463  y = -1.250645  z =  3.846028 angstrom
           Maximum rank =  0   Radius =  0.325 angstrom
                   Q00  =   0.086559

H          x =  1.518813  y = -0.725325  z =  2.660058 angstrom
           Maximum rank =  0   Radius =  0.325 angstrom
                   Q00  =   0.083041

H          x = -0.117677  y = -2.339885  z = -0.399852 angstrom
           Maximum rank =  0   Radius =  0.325 angstrom
                   Q00  =   0.080876

Total multipoles referred to origin at
           x =   0.000000,  y =    0.000000,  z =    0.000000 angstrom
                   Q00  =  -0.000000

Finished at 0:16:29 on 28 Apr 2020

  DMA results are available in the Python driver through the
	  variable('DMA DISTRIBUTED MULTIPOLES')
  and
	  variable('DMA TOTAL MULTIPOLES')
  commands.

    Psi4 stopped on: Tuesday, 28 April 2020 12:16AM
    Psi4 wall time for execution: 0:01:11.54

*** Psi4 exiting successfully. Buy a developer a beer!
