                               Psi4 1.3.2 release

  ==> Input File <==

--------------------------------------------------------------------------
import numpy as np
set {scf_type pk
basis cc-pvdz
d_convergence 10
gdma_switch   0
gdma_limit    0
gdma_origin   [ 0.0,  0.0,  0.0 ]
}
molecule test {
    units Angstrom
    0 1
    --
    0 1
    C                0.602624773632290    -2.153786637276677    -1.211576302724877
    C                0.979624773632290    -3.587786637276678    -0.870576302724877
    C                1.587624773632290    -1.647786637276678    -2.254576302724877
    C               -0.829375226367710    -2.056786637276678    -1.720576302724877
    H                0.685624773632290    -1.559786637276678    -0.310576302724877
    H                1.967624773632290    -3.585786637276678    -0.405576302724877
    H                1.046624773632290    -4.152786637276678    -1.801576302724877
    H                1.511624773632290    -2.243786637276678    -3.160576302724877
    H                1.351624773632290    -0.622786637276678    -2.513576302724878
    H                2.605624773632290    -1.691786637276678    -1.866576302724877
    H               -1.532375226367710    -2.277786637276678    -0.918576302724877
    H               -1.024375226367710    -1.039786637276678    -2.060576302724878
    H               -0.984375226367710    -2.746786637276678    -2.550576302724877
    H                0.277316773632290    -4.127356637276677    -0.218174302724877
    C                1.599624773632290     0.796213362723322     0.330423697275123
    C                2.513624773632290     2.004213362723322     0.505423697275123
    C                0.151624773632290     1.051213362723322     0.689423697275123
    C               -0.590375226367710     2.028213362723322     0.018423697275123
    C               -0.476375226367710     0.275213362723322     1.655423697275123
    C               -1.934375226367710     2.239213362723322     0.329423697275123
    C               -1.824375226367710     0.464213362723322     1.959423697275123
    C               -2.558375226367709     1.436213362723322     1.284423697275123
    H                1.634624773632290     0.531213362723322    -0.719576302724877
    H                1.989624773632290    -0.037786637276678     0.916423697275123
    H                2.162624773632290     2.811213362723322    -0.138576302724877
    H               -0.127375226367710     2.619213362723322    -0.757576302724877
    H                0.081624773632290    -0.486786637276678     2.180423697275123
    H               -2.494375226367710     2.999213362723323    -0.195576302724877
    H               -2.303375226367709    -0.150786637276678     2.707423697275122
    H               -3.604375226367710     1.576213362723322     1.516423697275123
    H                3.543981773632291     1.730713362723322     0.234197697275123
    H                2.481578773632290     2.352353362723322     1.548386697275123

}
e, wfn = energy('scf', return_wfn=True)
gdma(wfn)
dmavals = variable('DMA DISTRIBUTED MULTIPOLES')
charges = np.array(dmavals)
print(charges)
np.save('SSI-013LEU-065PHE-1-dimer.npy', np.array(charges))--------------------------------------------------------------------------

*** tstart() called on ds3
*** at Sun Apr 26 16:58:03 2020

   => Loading Basis Set <=

    Name: CC-PVDZ
    Role: ORBITAL
    Keyword: BASIS
    atoms 1-4, 15-22  entry C          line   138 file /theoryfs2/ds/metcalf/miniconda2/envs/tf2gpu/share/psi4/basis/cc-pvdz.gbs
    atoms 5-14, 23-32 entry H          line    22 file /theoryfs2/ds/metcalf/miniconda2/envs/tf2gpu/share/psi4/basis/cc-pvdz.gbs

         ---------------------------------------------------------
                                   SCF
               by Justin Turney, Rob Parrish, Andy Simmonett
                          and Daniel G. A. Smith
                              RHF Reference
                        1 Threads,    500 MiB Core
         ---------------------------------------------------------

  ==> Geometry <==

    Molecular point group: c1
    Full point group: C1

    Geometry (in Angstrom), charge = 0, multiplicity = 1:

       Center              X                  Y                   Z               Mass
    ------------   -----------------  -----------------  -----------------  -----------------
         C            0.602624773632    -2.153786637277    -1.211576302725    12.000000000000
         C            0.979624773632    -3.587786637277    -0.870576302725    12.000000000000
         C            1.587624773632    -1.647786637277    -2.254576302725    12.000000000000
         C           -0.829375226368    -2.056786637277    -1.720576302725    12.000000000000
         H            0.685624773632    -1.559786637277    -0.310576302725     1.007825032230
         H            1.967624773632    -3.585786637277    -0.405576302725     1.007825032230
         H            1.046624773632    -4.152786637277    -1.801576302725     1.007825032230
         H            1.511624773632    -2.243786637277    -3.160576302725     1.007825032230
         H            1.351624773632    -0.622786637277    -2.513576302725     1.007825032230
         H            2.605624773632    -1.691786637277    -1.866576302725     1.007825032230
         H           -1.532375226368    -2.277786637277    -0.918576302725     1.007825032230
         H           -1.024375226368    -1.039786637277    -2.060576302725     1.007825032230
         H           -0.984375226368    -2.746786637277    -2.550576302725     1.007825032230
         H            0.277316773632    -4.127356637277    -0.218174302725     1.007825032230
         C            1.599624773632     0.796213362723     0.330423697275    12.000000000000
         C            2.513624773632     2.004213362723     0.505423697275    12.000000000000
         C            0.151624773632     1.051213362723     0.689423697275    12.000000000000
         C           -0.590375226368     2.028213362723     0.018423697275    12.000000000000
         C           -0.476375226368     0.275213362723     1.655423697275    12.000000000000
         C           -1.934375226368     2.239213362723     0.329423697275    12.000000000000
         C           -1.824375226368     0.464213362723     1.959423697275    12.000000000000
         C           -2.558375226368     1.436213362723     1.284423697275    12.000000000000
         H            1.634624773632     0.531213362723    -0.719576302725     1.007825032230
         H            1.989624773632    -0.037786637277     0.916423697275     1.007825032230
         H            2.162624773632     2.811213362723    -0.138576302725     1.007825032230
         H           -0.127375226368     2.619213362723    -0.757576302725     1.007825032230
         H            0.081624773632    -0.486786637277     2.180423697275     1.007825032230
         H           -2.494375226368     2.999213362723    -0.195576302725     1.007825032230
         H           -2.303375226368    -0.150786637277     2.707423697275     1.007825032230
         H           -3.604375226368     1.576213362723     1.516423697275     1.007825032230
         H            3.543981773632     1.730713362723     0.234197697275     1.007825032230
         H            2.481578773632     2.352353362723     1.548386697275     1.007825032230

  Running in c1 symmetry.

  Rotational constants: A =      0.03554  B =      0.01768  C =      0.01430 [cm^-1]
  Rotational constants: A =   1065.39008  B =    530.08696  C =    428.83850 [MHz]
  Nuclear repulsion =  690.449241362379098

  Charge       = 0
  Multiplicity = 1
  Electrons    = 92
  Nalpha       = 46
  Nbeta        = 46

  ==> Algorithm <==

  SCF Algorithm Type is PK.
  DIIS enabled.
  MOM disabled.
  Fractional occupation disabled.
  Guess Type is SAD.
  Energy threshold   = 1.00e-06
  Density threshold  = 1.00e-10
  Integral threshold = 0.00e+00

  ==> Primary Basis <==

  Basis Set: CC-PVDZ
    Blend: CC-PVDZ
    Number of shells: 132
    Number of basis function: 268
    Number of Cartesian functions: 280
    Spherical Harmonics?: true
    Max angular momentum: 2

  ==> Pre-Iterations <==

   -------------------------------------------------------
    Irrep   Nso     Nmo     Nalpha   Nbeta   Ndocc  Nsocc
   -------------------------------------------------------
     A        268     268       0       0       0       0
   -------------------------------------------------------
    Total     268     268      46      46      46       0
   -------------------------------------------------------

  ==> Integral Setup <==

  Using integral reordering PK algorithm.
  Sizing the integral batches needed.
  Building batch lookup table.
   Calculation information:
      Number of atoms:                  32
      Number of AO shells:             132
      Number of primitives:            364
      Number of atomic orbitals:       280
      Number of basis functions:       268

      Integral cutoff                 1.00e-12
      Number of threads:                 1

	Batch   1 pq = [       0,    9405] index = [             0,44231715] size =     44231715
	Batch   2 pq = [    9405,   13301] index = [      44231715,88464951] size =     44233236
	Batch   3 pq = [   13301,   16290] index = [      88464951,132690195] size =     44225244
	Batch   4 pq = [   16290,   18810] index = [     132690195,176917455] size =     44227260
	Batch   5 pq = [   18810,   21030] index = [     176917455,221140965] size =     44223510
	Batch   6 pq = [   21030,   23037] index = [     221140965,265363203] size =     44222238
	Batch   7 pq = [   23037,   24883] index = [     265363203,309594286] size =     44231083
	Batch   8 pq = [   24883,   26601] index = [     309594286,353819901] size =     44225615
	Batch   9 pq = [   26601,   28214] index = [     353819901,398029005] size =     44209104
	Batch  10 pq = [   28214,   29740] index = [     398029005,442248670] size =     44219665
	Batch  11 pq = [   29740,   31191] index = [     442248670,486454836] size =     44206166
	Batch  12 pq = [   31191,   32578] index = [     486454836,530679331] size =     44224495
	Batch  13 pq = [   32578,   33908] index = [     530679331,574893186] size =     44213855
	Batch  14 pq = [   33908,   35188] index = [     574893186,619115266] size =     44222080
	Batch  15 pq = [   35188,   36046] index = [     619115266,649675081] size =     30559815
  Task number: 59
  Buffer size: 11059200
  Buffer per thread: 2
  We computed 42827370 shell quartets total.
  Whereas there are 38531031 unique shell quartets.
    11.15 percent of shell quartets recomputed by reordering.

  ==> DiskJK: Disk-Based J/K Matrices <==

    J tasked:                  Yes
    K tasked:                  Yes
    wK tasked:                  No
    Memory [MiB]:              375
    Schwarz Cutoff:          1E-12

    OpenMP threads:              1

  Minimum eigenvalue in the overlap matrix is 3.1282287086E-04.
  Using Symmetric Orthogonalization.

  SCF Guess: Superposition of Atomic Densities via on-the-fly atomic UHF.

  ==> Iterations <==

                        Total Energy        Delta E     RMS |[F,P]|

   @RHF iter SAD:  -465.06211073812233   -4.65062e+02   0.00000e+00
   @RHF iter   1:  -465.77583615613094   -7.13725e-01   2.53075e-03 DIIS
   @RHF iter   2:  -466.05004554309471   -2.74209e-01   1.07247e-03 DIIS
   @RHF iter   3:  -466.09492236497499   -4.48768e-02   2.39024e-04 DIIS
   @RHF iter   4:  -466.09864877429510   -3.72641e-03   6.14777e-05 DIIS
   @RHF iter   5:  -466.09881528099419   -1.66507e-04   1.71884e-05 DIIS
   @RHF iter   6:  -466.09882924664976   -1.39657e-05   5.17441e-06 DIIS
   @RHF iter   7:  -466.09883064598381   -1.39933e-06   1.16249e-06 DIIS
   @RHF iter   8:  -466.09883073493069   -8.89469e-08   2.92875e-07 DIIS
   @RHF iter   9:  -466.09883074416257   -9.23188e-09   1.04459e-07 DIIS
   @RHF iter  10:  -466.09883074588566   -1.72309e-09   5.08225e-08 DIIS
   @RHF iter  11:  -466.09883074641436   -5.28701e-10   2.05256e-08 DIIS
   @RHF iter  12:  -466.09883074651714   -1.02773e-10   8.32308e-09 DIIS
   @RHF iter  13:  -466.09883074653260   -1.54614e-11   3.34170e-09 DIIS
   @RHF iter  14:  -466.09883074653555   -2.95586e-12   9.50669e-10 DIIS
   @RHF iter  15:  -466.09883074653379    1.76215e-12   3.63706e-10 DIIS
   @RHF iter  16:  -466.09883074653465   -8.52651e-13   1.59446e-10 DIIS
   @RHF iter  17:  -466.09883074653379    8.52651e-13   7.20552e-11 DIIS
  Energy and wave function converged.

  ==> Post-Iterations <==

    Orbital Energies [Eh]
    ---------------------

    Doubly Occupied:

       1A    -11.239303     2A    -11.237750     3A    -11.236378
       4A    -11.232782     5A    -11.232647     6A    -11.231093
       7A    -11.227938     8A    -11.223324     9A    -11.215172
      10A    -11.210511    11A    -11.210251    12A    -11.206065
      13A     -1.153932    14A     -1.082802    15A     -1.063402
      16A     -1.012068    17A     -0.983255    18A     -0.924640
      19A     -0.922303    20A     -0.862274    21A     -0.825229
      22A     -0.786452    23A     -0.762402    24A     -0.692451
      25A     -0.640515    26A     -0.638248    27A     -0.628557
      28A     -0.597112    29A     -0.590698    30A     -0.589239
      31A     -0.580821    32A     -0.578036    33A     -0.538904
      34A     -0.534581    35A     -0.527799    36A     -0.516308
      37A     -0.505594    38A     -0.502443    39A     -0.481600
      40A     -0.476811    41A     -0.467491    42A     -0.455011
      43A     -0.454219    44A     -0.453306    45A     -0.332471
      46A     -0.322251

    Virtual:

      47A      0.131649    48A      0.139642    49A      0.171291
      50A      0.191948    51A      0.197504    52A      0.205283
      53A      0.225875    54A      0.230862    55A      0.238376
      56A      0.245519    57A      0.250856    58A      0.255639
      59A      0.262963    60A      0.270330    61A      0.273462
      62A      0.301768    63A      0.302310    64A      0.306216
      65A      0.315353    66A      0.318816    67A      0.332258
      68A      0.344511    69A      0.351509    70A      0.372605
      71A      0.393682    72A      0.412778    73A      0.421794
      74A      0.427762    75A      0.450584    76A      0.467536
      77A      0.493343    78A      0.497324    79A      0.559819
      80A      0.571018    81A      0.581756    82A      0.593239
      83A      0.605103    84A      0.608910    85A      0.621828
      86A      0.634189    87A      0.653180    88A      0.683869
      89A      0.699372    90A      0.716491    91A      0.728705
      92A      0.736624    93A      0.740466    94A      0.745328
      95A      0.753815    96A      0.758917    97A      0.770699
      98A      0.777604    99A      0.782736   100A      0.802534
     101A      0.822024   102A      0.837076   103A      0.840276
     104A      0.847911   105A      0.861191   106A      0.868730
     107A      0.871845   108A      0.874808   109A      0.887627
     110A      0.889582   111A      0.898269   112A      0.899592
     113A      0.908952   114A      0.910245   115A      0.917050
     116A      0.918347   117A      0.925191   118A      0.936806
     119A      0.944072   120A      0.953251   121A      0.954321
     122A      0.965965   123A      0.975313   124A      0.977651
     125A      0.987619   126A      0.995052   127A      1.009331
     128A      1.012575   129A      1.027335   130A      1.053144
     131A      1.083914   132A      1.108581   133A      1.118897
     134A      1.133919   135A      1.147007   136A      1.151056
     137A      1.156680   138A      1.166057   139A      1.195198
     140A      1.219737   141A      1.233283   142A      1.255988
     143A      1.259626   144A      1.263629   145A      1.300439
     146A      1.301981   147A      1.323934   148A      1.331225
     149A      1.379004   150A      1.394380   151A      1.421343
     152A      1.424089   153A      1.443231   154A      1.486098
     155A      1.516907   156A      1.523100   157A      1.553878
     158A      1.575645   159A      1.580116   160A      1.619714
     161A      1.652105   162A      1.679937   163A      1.685002
     164A      1.690430   165A      1.697535   166A      1.711708
     167A      1.719708   168A      1.723687   169A      1.735442
     170A      1.740442   171A      1.748294   172A      1.759033
     173A      1.778805   174A      1.823168   175A      1.834705
     176A      1.848747   177A      1.856750   178A      1.877030
     179A      1.886499   180A      1.890542   181A      1.892562
     182A      1.903249   183A      1.910991   184A      1.916088
     185A      1.939705   186A      1.940543   187A      1.943548
     188A      1.944578   189A      1.958168   190A      1.966074
     191A      1.968850   192A      1.971162   193A      1.986825
     194A      1.992526   195A      2.002398   196A      2.003745
     197A      2.012380   198A      2.029026   199A      2.033025
     200A      2.035645   201A      2.046452   202A      2.056647
     203A      2.063786   204A      2.075498   205A      2.092057
     206A      2.109559   207A      2.130611   208A      2.144543
     209A      2.145896   210A      2.158400   211A      2.159212
     212A      2.168643   213A      2.171751   214A      2.185925
     215A      2.205878   216A      2.236636   217A      2.257226
     218A      2.266018   219A      2.270699   220A      2.278806
     221A      2.302527   222A      2.317327   223A      2.320248
     224A      2.333787   225A      2.343034   226A      2.352776
     227A      2.366082   228A      2.390511   229A      2.421073
     230A      2.462317   231A      2.473309   232A      2.483395
     233A      2.489988   234A      2.545904   235A      2.560542
     236A      2.593912   237A      2.606010   238A      2.632805
     239A      2.646992   240A      2.672479   241A      2.719367
     242A      2.736406   243A      2.748506   244A      2.758784
     245A      2.771347   246A      2.773027   247A      2.783580
     248A      2.798002   249A      2.798932   250A      2.809323
     251A      2.824376   252A      2.842255   253A      2.852034
     254A      2.858214   255A      2.877992   256A      2.883302
     257A      2.928596   258A      2.969409   259A      2.993845
     260A      3.025426   261A      3.037449   262A      3.043027
     263A      3.063826   264A      3.188278   265A      3.201491
     266A      3.207366   267A      3.304632   268A      3.962537

    Final Occupation by Irrep:
              A
    DOCC [    46 ]

  @RHF Final Energy:  -466.09883074653379

   => Energetics <=

    Nuclear Repulsion Energy =            690.4492413623790981
    One-Electron Energy =               -1998.7232588961553574
    Two-Electron Energy =                 842.1751867872424100
    Total Energy =                       -466.0988307465338494

Computation Completed

Properties will be evaluated at   0.000000,   0.000000,   0.000000 [a0]

Properties computed using the SCF density matrix

  Nuclear Dipole Moment: [e a0]
     X:     8.6899      Y:    -9.4719      Z:    -7.9820

  Electronic Dipole Moment: [e a0]
     X:    -8.6229      Y:     9.5338      Z:     7.9875

  Dipole Moment: [e a0]
     X:     0.0670      Y:     0.0619      Z:     0.0055     Total:     0.0913

  Dipole Moment: [D]
     X:     0.1702      Y:     0.1573      Z:     0.0140     Total:     0.2322

*** tstop() called on ds3 at Sun Apr 26 17:07:08 2020
Module time:
	user time   =     347.70 seconds =       5.79 minutes
	system time =     114.75 seconds =       1.91 minutes
	total time  =        545 seconds =       9.08 minutes
Total time:
	user time   =     347.70 seconds =       5.79 minutes
	system time =     114.75 seconds =       1.91 minutes
	total time  =        545 seconds =       9.08 minutes
                                     G D M A

                                 by Anthony Stone

                           version 2.2.06, 22 June 2011

               Distributed Multipoles from Gaussian wavefunctions

Starting at 17:7:8 on 26 Apr 2020

Using SCF density matrix from file ./SSI/SSI-013LEU-065PHE-1-dimer.test.17052.fchk

                         Distributed Multipole Analysis

Standard DMA

Positions and radii in angstrom
Multipole moments in atomic units, ea_0^k for rank k

C          x =  0.602625  y = -2.153787  z = -1.211576 angstrom
           Maximum rank =  0   Radius =  0.650 angstrom
                   Q00  =   0.017818

C          x =  0.979625  y = -3.587787  z = -0.870576 angstrom
           Maximum rank =  0   Radius =  0.650 angstrom
                   Q00  =  -0.244001

C          x =  1.587625  y = -1.647787  z = -2.254576 angstrom
           Maximum rank =  0   Radius =  0.650 angstrom
                   Q00  =  -0.247108

C          x = -0.829375  y = -2.056787  z = -1.720576 angstrom
           Maximum rank =  0   Radius =  0.650 angstrom
                   Q00  =  -0.239654

H          x =  0.685625  y = -1.559787  z = -0.310576 angstrom
           Maximum rank =  0   Radius =  0.325 angstrom
                   Q00  =   0.016205

H          x =  1.967625  y = -3.585787  z = -0.405576 angstrom
           Maximum rank =  0   Radius =  0.325 angstrom
                   Q00  =   0.074039

H          x =  1.046625  y = -4.152787  z = -1.801576 angstrom
           Maximum rank =  0   Radius =  0.325 angstrom
                   Q00  =   0.069572

H          x =  1.511625  y = -2.243787  z = -3.160576 angstrom
           Maximum rank =  0   Radius =  0.325 angstrom
                   Q00  =   0.078533

H          x =  1.351625  y = -0.622787  z = -2.513576 angstrom
           Maximum rank =  0   Radius =  0.325 angstrom
                   Q00  =   0.075547

H          x =  2.605625  y = -1.691787  z = -1.866576 angstrom
           Maximum rank =  0   Radius =  0.325 angstrom
                   Q00  =   0.077233

H          x = -1.532375  y = -2.277787  z = -0.918576 angstrom
           Maximum rank =  0   Radius =  0.325 angstrom
                   Q00  =   0.085751

H          x = -1.024375  y = -1.039787  z = -2.060576 angstrom
           Maximum rank =  0   Radius =  0.325 angstrom
                   Q00  =   0.082107

H          x = -0.984375  y = -2.746787  z = -2.550576 angstrom
           Maximum rank =  0   Radius =  0.325 angstrom
                   Q00  =   0.069968

H          x =  0.277317  y = -4.127357  z = -0.218174 angstrom
           Maximum rank =  0   Radius =  0.325 angstrom
                   Q00  =   0.079709

C          x =  1.599625  y =  0.796213  z =  0.330424 angstrom
           Maximum rank =  0   Radius =  0.650 angstrom
                   Q00  =  -0.055319

C          x =  2.513625  y =  2.004213  z =  0.505424 angstrom
           Maximum rank =  0   Radius =  0.650 angstrom
                   Q00  =  -0.216077

C          x =  0.151625  y =  1.051213  z =  0.689424 angstrom
           Maximum rank =  0   Radius =  0.650 angstrom
                   Q00  =  -0.101070

C          x = -0.590375  y =  2.028213  z =  0.018424 angstrom
           Maximum rank =  0   Radius =  0.650 angstrom
                   Q00  =  -0.075090

C          x = -0.476375  y =  0.275213  z =  1.655424 angstrom
           Maximum rank =  0   Radius =  0.650 angstrom
                   Q00  =  -0.010604

C          x = -1.934375  y =  2.239213  z =  0.329424 angstrom
           Maximum rank =  0   Radius =  0.650 angstrom
                   Q00  =  -0.065414

C          x = -1.824375  y =  0.464213  z =  1.959424 angstrom
           Maximum rank =  0   Radius =  0.650 angstrom
                   Q00  =  -0.070471

C          x = -2.558375  y =  1.436213  z =  1.284424 angstrom
           Maximum rank =  0   Radius =  0.650 angstrom
                   Q00  =  -0.096008

H          x =  1.634625  y =  0.531213  z = -0.719576 angstrom
           Maximum rank =  0   Radius =  0.325 angstrom
                   Q00  =   0.071963

H          x =  1.989625  y = -0.037787  z =  0.916424 angstrom
           Maximum rank =  0   Radius =  0.325 angstrom
                   Q00  =   0.061322

H          x =  2.162625  y =  2.811213  z = -0.138576 angstrom
           Maximum rank =  0   Radius =  0.325 angstrom
                   Q00  =   0.081272

H          x = -0.127375  y =  2.619213  z = -0.757576 angstrom
           Maximum rank =  0   Radius =  0.325 angstrom
                   Q00  =   0.058626

H          x =  0.081625  y = -0.486787  z =  2.180424 angstrom
           Maximum rank =  0   Radius =  0.325 angstrom
                   Q00  =   0.058618

H          x = -2.494375  y =  2.999213  z = -0.195576 angstrom
           Maximum rank =  0   Radius =  0.325 angstrom
                   Q00  =   0.066309

H          x = -2.303375  y = -0.150787  z =  2.707424 angstrom
           Maximum rank =  0   Radius =  0.325 angstrom
                   Q00  =   0.065588

H          x = -3.604375  y =  1.576213  z =  1.516424 angstrom
           Maximum rank =  0   Radius =  0.325 angstrom
                   Q00  =   0.062574

H          x =  3.543982  y =  1.730713  z =  0.234198 angstrom
           Maximum rank =  0   Radius =  0.325 angstrom
                   Q00  =   0.085737

H          x =  2.481579  y =  2.352353  z =  1.548387 angstrom
           Maximum rank =  0   Radius =  0.325 angstrom
                   Q00  =   0.082324

Total multipoles referred to origin at
           x =   0.000000,  y =    0.000000,  z =    0.000000 angstrom
                   Q00  =  -0.000000

Finished at 17:7:8 on 26 Apr 2020

  DMA results are available in the Python driver through the
	  variable('DMA DISTRIBUTED MULTIPOLES')
  and
	  variable('DMA TOTAL MULTIPOLES')
  commands.

    Psi4 stopped on: Sunday, 26 April 2020 05:07PM
    Psi4 wall time for execution: 0:09:05.34

*** Psi4 exiting successfully. Buy a developer a beer!
