                               Psi4 1.3.2 release

  ==> Input File <==

--------------------------------------------------------------------------
import numpy as np
set {scf_type pk
basis cc-pvdz
d_convergence 10
gdma_switch   0
gdma_limit    0
gdma_origin   [ 0.0,  0.0,  0.0 ]
}
molecule test {
    units Angstrom
    0 1
    --
    0 1
    C               -0.419242239074116     2.058698495371667     2.043835462030728
    C                0.597757760925884     0.595698495371667     0.167835462030728
    C                0.690757760925884     1.586698495371667     1.191835462030728
    C                1.888757760925884     0.456698495371667    -0.403164537969272
    C                1.979757760925884     2.014698495371667     1.198835462030728
    C               -0.450242239074116    -0.188301504628333    -0.323164537969272
    C               -0.195242239074116    -1.070301504628333    -1.347164537969272
    C                1.088757760925884    -1.187301504628333    -1.895164537969272
    C                2.144757760925884    -0.425301504628333    -1.435164537969272
    N                2.705757760925884     1.337698495371667     0.246835462030728
    H               -1.443242239074116    -0.095301504628333     0.094835462030728
    H               -1.001242239074116    -1.677301504628333    -1.732164537969272
    H                1.250757760925884    -1.882301504628333    -2.706164537969272
    H               -0.017242239074116     2.402698495371667     2.996835462030728
    H               -1.072242239074116     1.209698495371667     2.251835462030728
    H                2.370757760925884     2.781698495371666     1.854835462030728
    H                3.685757760925884     1.517698495371667     0.038835462030728
    H                3.133757760925884    -0.504301504628333    -1.860164537969272
    H               -1.010873239074116     2.859568495371667     1.576305462030728
    C               -3.714242239074116    -2.016301504628333     0.167835462030728
    C               -5.057242239074116    -2.737301504628333     0.076835462030728
    H               -3.723242239074116    -1.310301504628333     0.997835462030728
    H               -2.920242239074116    -2.745301504628333     0.332835462030728
    H               -3.498242239074116    -1.488301504628333    -0.760164537969272
    H               -5.020242239074116    -3.376301504628334    -0.804164537969272
    H               -5.892509239074116    -2.029654504628333    -0.030714537969272
    H               -5.223175639074116    -3.385950504628334     0.949605462030728

}
e, wfn = energy('scf', return_wfn=True)
gdma(wfn)
dmavals = variable('DMA DISTRIBUTED MULTIPOLES')
charges = np.array(dmavals)
print(charges)
np.save('SSI-125TRP-150VAL-1-dimer.npy', np.array(charges))--------------------------------------------------------------------------

*** tstart() called on ds3
*** at Mon Apr 27 01:35:12 2020

   => Loading Basis Set <=

    Name: CC-PVDZ
    Role: ORBITAL
    Keyword: BASIS
    atoms 1-9, 20-21   entry C          line   138 file /theoryfs2/ds/metcalf/miniconda2/envs/tf2gpu/share/psi4/basis/cc-pvdz.gbs
    atoms 10           entry N          line   168 file /theoryfs2/ds/metcalf/miniconda2/envs/tf2gpu/share/psi4/basis/cc-pvdz.gbs
    atoms 11-19, 22-27 entry H          line    22 file /theoryfs2/ds/metcalf/miniconda2/envs/tf2gpu/share/psi4/basis/cc-pvdz.gbs

         ---------------------------------------------------------
                                   SCF
               by Justin Turney, Rob Parrish, Andy Simmonett
                          and Daniel G. A. Smith
                              RHF Reference
                        1 Threads,    500 MiB Core
         ---------------------------------------------------------

  ==> Geometry <==

    Molecular point group: c1
    Full point group: C1

    Geometry (in Angstrom), charge = 0, multiplicity = 1:

       Center              X                  Y                   Z               Mass
    ------------   -----------------  -----------------  -----------------  -----------------
         C           -0.419242239074     2.058698495372     2.043835462031    12.000000000000
         C            0.597757760926     0.595698495372     0.167835462031    12.000000000000
         C            0.690757760926     1.586698495372     1.191835462031    12.000000000000
         C            1.888757760926     0.456698495372    -0.403164537969    12.000000000000
         C            1.979757760926     2.014698495372     1.198835462031    12.000000000000
         C           -0.450242239074    -0.188301504628    -0.323164537969    12.000000000000
         C           -0.195242239074    -1.070301504628    -1.347164537969    12.000000000000
         C            1.088757760926    -1.187301504628    -1.895164537969    12.000000000000
         C            2.144757760926    -0.425301504628    -1.435164537969    12.000000000000
         N            2.705757760926     1.337698495372     0.246835462031    14.003074004430
         H           -1.443242239074    -0.095301504628     0.094835462031     1.007825032230
         H           -1.001242239074    -1.677301504628    -1.732164537969     1.007825032230
         H            1.250757760926    -1.882301504628    -2.706164537969     1.007825032230
         H           -0.017242239074     2.402698495372     2.996835462031     1.007825032230
         H           -1.072242239074     1.209698495372     2.251835462031     1.007825032230
         H            2.370757760926     2.781698495372     1.854835462031     1.007825032230
         H            3.685757760926     1.517698495372     0.038835462031     1.007825032230
         H            3.133757760926    -0.504301504628    -1.860164537969     1.007825032230
         H           -1.010873239074     2.859568495372     1.576305462031     1.007825032230
         C           -3.714242239074    -2.016301504628     0.167835462031    12.000000000000
         C           -5.057242239074    -2.737301504628     0.076835462031    12.000000000000
         H           -3.723242239074    -1.310301504628     0.997835462031     1.007825032230
         H           -2.920242239074    -2.745301504628     0.332835462031     1.007825032230
         H           -3.498242239074    -1.488301504628    -0.760164537969     1.007825032230
         H           -5.020242239074    -3.376301504628    -0.804164537969     1.007825032230
         H           -5.892509239074    -2.029654504628    -0.030714537969     1.007825032230
         H           -5.223175639074    -3.385950504628     0.949605462031     1.007825032230

  Running in c1 symmetry.

  Rotational constants: A =      0.04431  B =      0.01457  C =      0.01109 [cm^-1]
  Rotational constants: A =   1328.29358  B =    436.65254  C =    332.49424 [MHz]
  Nuclear repulsion =  640.070208654911085

  Charge       = 0
  Multiplicity = 1
  Electrons    = 88
  Nalpha       = 44
  Nbeta        = 44

  ==> Algorithm <==

  SCF Algorithm Type is PK.
  DIIS enabled.
  MOM disabled.
  Fractional occupation disabled.
  Guess Type is SAD.
  Energy threshold   = 1.00e-06
  Density threshold  = 1.00e-10
  Integral threshold = 0.00e+00

  ==> Primary Basis <==

  Basis Set: CC-PVDZ
    Blend: CC-PVDZ
    Number of shells: 117
    Number of basis function: 243
    Number of Cartesian functions: 255
    Spherical Harmonics?: true
    Max angular momentum: 2

  ==> Pre-Iterations <==

   -------------------------------------------------------
    Irrep   Nso     Nmo     Nalpha   Nbeta   Ndocc  Nsocc
   -------------------------------------------------------
     A        243     243       0       0       0       0
   -------------------------------------------------------
    Total     243     243      44      44      44       0
   -------------------------------------------------------

  ==> Integral Setup <==

  Using integral reordering PK algorithm.
  Sizing the integral batches needed.
  Building batch lookup table.
   Calculation information:
      Number of atoms:                  27
      Number of AO shells:             117
      Number of primitives:            339
      Number of atomic orbitals:       255
      Number of basis functions:       243

      Integral cutoff                 1.00e-12
      Number of threads:                 1

	Batch   1 pq = [       0,    9405] index = [             0,44231715] size =     44231715
	Batch   2 pq = [    9405,   13301] index = [      44231715,88464951] size =     44233236
	Batch   3 pq = [   13301,   16290] index = [      88464951,132690195] size =     44225244
	Batch   4 pq = [   16290,   18810] index = [     132690195,176917455] size =     44227260
	Batch   5 pq = [   18810,   21030] index = [     176917455,221140965] size =     44223510
	Batch   6 pq = [   21030,   23037] index = [     221140965,265363203] size =     44222238
	Batch   7 pq = [   23037,   24883] index = [     265363203,309594286] size =     44231083
	Batch   8 pq = [   24883,   26601] index = [     309594286,353819901] size =     44225615
	Batch   9 pq = [   26601,   28214] index = [     353819901,398029005] size =     44209104
	Batch  10 pq = [   28214,   29646] index = [     398029005,439457481] size =     41428476
  Task number: 40
  Buffer size: 11059200
  Buffer per thread: 2
  We computed 19056721 shell quartets total.
  Whereas there are 23829156 unique shell quartets.

  ==> DiskJK: Disk-Based J/K Matrices <==

    J tasked:                  Yes
    K tasked:                  Yes
    wK tasked:                  No
    Memory [MiB]:              375
    Schwarz Cutoff:          1E-12

    OpenMP threads:              1

  Minimum eigenvalue in the overlap matrix is 2.2855704600E-04.
  Using Symmetric Orthogonalization.

  SCF Guess: Superposition of Atomic Densities via on-the-fly atomic UHF.

  ==> Iterations <==

                        Total Energy        Delta E     RMS |[F,P]|

   @RHF iter SAD:  -479.16342849503860   -4.79163e+02   0.00000e+00
   @RHF iter   1:  -479.48396671564785   -3.20538e-01   2.63643e-03 DIIS
   @RHF iter   2:  -479.72005215527406   -2.36085e-01   1.18839e-03 DIIS
   @RHF iter   3:  -479.76389747822833   -4.38453e-02   3.09765e-04 DIIS
   @RHF iter   4:  -479.76781905919700   -3.92158e-03   1.42321e-04 DIIS
   @RHF iter   5:  -479.76849698556811   -6.77926e-04   2.01723e-05 DIIS
   @RHF iter   6:  -479.76852638363658   -2.93981e-05   9.25662e-06 DIIS
   @RHF iter   7:  -479.76853240303853   -6.01940e-06   3.85055e-06 DIIS
   @RHF iter   8:  -479.76853409019452   -1.68716e-06   1.51551e-06 DIIS
   @RHF iter   9:  -479.76853443019888   -3.40004e-07   6.70169e-07 DIIS
   @RHF iter  10:  -479.76853449587952   -6.56806e-08   3.03262e-07 DIIS
   @RHF iter  11:  -479.76853451196189   -1.60824e-08   1.14594e-07 DIIS
   @RHF iter  12:  -479.76853451418884   -2.22695e-09   3.62552e-08 DIIS
   @RHF iter  13:  -479.76853451433249   -1.43643e-10   9.56644e-09 DIIS
   @RHF iter  14:  -479.76853451434516   -1.26761e-11   4.03203e-09 DIIS
   @RHF iter  15:  -479.76853451434602   -8.52651e-13   1.84407e-09 DIIS
   @RHF iter  16:  -479.76853451434772   -1.70530e-12   9.39389e-10 DIIS
   @RHF iter  17:  -479.76853451434658    1.13687e-12   3.52198e-10 DIIS
   @RHF iter  18:  -479.76853451434977   -3.18323e-12   1.46932e-10 DIIS
   @RHF iter  19:  -479.76853451435090   -1.13687e-12   4.84879e-11 DIIS
  Energy and wave function converged.

  ==> Post-Iterations <==

    Orbital Energies [Eh]
    ---------------------

    Doubly Occupied:

       1A    -15.600200     2A    -11.260625     3A    -11.260376
       4A    -11.227718     5A    -11.226266     6A    -11.225755
       7A    -11.223420     8A    -11.217978     9A    -11.216853
      10A    -11.215939    11A    -11.215811    12A    -11.212621
      13A     -1.295086    14A     -1.129973    15A     -1.076129
      16A     -1.017721    17A     -0.999800    18A     -0.985820
      19A     -0.931554    20A     -0.838526    21A     -0.836117
      22A     -0.804420    23A     -0.751617    24A     -0.718385
      25A     -0.661710    26A     -0.641755    27A     -0.602723
      28A     -0.597868    29A     -0.596305    30A     -0.592853
      31A     -0.591022    32A     -0.567453    33A     -0.552399
      34A     -0.539166    35A     -0.524529    36A     -0.501035
      37A     -0.492964    38A     -0.485045    39A     -0.482853
      40A     -0.469398    41A     -0.461877    42A     -0.372395
      43A     -0.294602    44A     -0.273349

    Virtual:

      45A      0.127956    46A      0.171946    47A      0.177027
      48A      0.181691    49A      0.193998    50A      0.206235
      51A      0.220667    52A      0.224316    53A      0.227904
      54A      0.248011    55A      0.255887    56A      0.263373
      57A      0.275957    58A      0.287032    59A      0.294046
      60A      0.302455    61A      0.312039    62A      0.323021
      63A      0.374761    64A      0.384855    65A      0.395761
      66A      0.412887    67A      0.433000    68A      0.455935
      69A      0.477418    70A      0.481659    71A      0.501985
      72A      0.511895    73A      0.588990    74A      0.597541
      75A      0.603681    76A      0.611820    77A      0.638067
      78A      0.645056    79A      0.657440    80A      0.669828
      81A      0.691690    82A      0.701019    83A      0.704275
      84A      0.711505    85A      0.723377    86A      0.734775
      87A      0.742558    88A      0.744624    89A      0.750743
      90A      0.763796    91A      0.776803    92A      0.780351
      93A      0.784596    94A      0.794332    95A      0.805135
      96A      0.834329    97A      0.849193    98A      0.862648
      99A      0.880057   100A      0.887099   101A      0.891104
     102A      0.893400   103A      0.895809   104A      0.902239
     105A      0.913110   106A      0.917496   107A      0.922114
     108A      0.926033   109A      0.930249   110A      0.956977
     111A      0.962668   112A      0.972522   113A      0.980482
     114A      0.992952   115A      1.007645   116A      1.018588
     117A      1.059034   118A      1.073109   119A      1.097500
     120A      1.121760   121A      1.132372   122A      1.141661
     123A      1.145523   124A      1.160304   125A      1.164371
     126A      1.198282   127A      1.218149   128A      1.232089
     129A      1.235924   130A      1.244963   131A      1.257083
     132A      1.272281   133A      1.277077   134A      1.297779
     135A      1.310245   136A      1.334661   137A      1.342385
     138A      1.363985   139A      1.381524   140A      1.439574
     141A      1.447572   142A      1.473399   143A      1.482295
     144A      1.531167   145A      1.560491   146A      1.583668
     147A      1.592536   148A      1.610008   149A      1.630811
     150A      1.642945   151A      1.653455   152A      1.683331
     153A      1.694424   154A      1.696396   155A      1.703724
     156A      1.742868   157A      1.763865   158A      1.772767
     159A      1.791844   160A      1.808726   161A      1.828434
     162A      1.836787   163A      1.866069   164A      1.877626
     165A      1.889186   166A      1.901350   167A      1.904381
     168A      1.909890   169A      1.913156   170A      1.925854
     171A      1.933022   172A      1.939566   173A      1.946174
     174A      1.948178   175A      1.955368   176A      1.965562
     177A      1.974905   178A      1.984454   179A      1.999864
     180A      2.011661   181A      2.016513   182A      2.030905
     183A      2.075239   184A      2.080617   185A      2.089031
     186A      2.095268   187A      2.101435   188A      2.109006
     189A      2.114852   190A      2.121786   191A      2.129848
     192A      2.160734   193A      2.167986   194A      2.182325
     195A      2.197798   196A      2.245831   197A      2.271541
     198A      2.287042   199A      2.306218   200A      2.312842
     201A      2.323209   202A      2.341837   203A      2.352557
     204A      2.368077   205A      2.407861   206A      2.424877
     207A      2.458598   208A      2.463895   209A      2.467193
     210A      2.471584   211A      2.547849   212A      2.554134
     213A      2.580168   214A      2.594843   215A      2.613890
     216A      2.651283   217A      2.670484   218A      2.696136
     219A      2.716308   220A      2.760924   221A      2.771668
     222A      2.784695   223A      2.790077   224A      2.793212
     225A      2.822401   226A      2.841511   227A      2.852465
     228A      2.863187   229A      2.874030   230A      2.885753
     231A      2.921666   232A      2.948111   233A      2.956424
     234A      2.976680   235A      3.040625   236A      3.061487
     237A      3.090008   238A      3.132983   239A      3.222079
     240A      3.327785   241A      3.392157   242A      3.748732
     243A      3.976762

    Final Occupation by Irrep:
              A
    DOCC [    44 ]

  @RHF Final Energy:  -479.76853451435090

   => Energetics <=

    Nuclear Repulsion Energy =            640.0702086549110845
    One-Electron Energy =               -1918.0974616210976365
    Two-Electron Energy =                 798.2587184518356480
    Total Energy =                       -479.7685345143509039

Computation Completed

Properties will be evaluated at   0.000000,   0.000000,   0.000000 [a0]

Properties computed using the SCF density matrix

  Nuclear Dipole Moment: [e a0]
     X:   -19.1149      Y:    -7.2446      Z:     2.9994

  Electronic Dipole Moment: [e a0]
     X:    19.7766      Y:     7.6522      Z:    -2.8360

  Dipole Moment: [e a0]
     X:     0.6618      Y:     0.4077      Z:     0.1634     Total:     0.7943

  Dipole Moment: [D]
     X:     1.6821      Y:     1.0362      Z:     0.4154     Total:     2.0188

*** tstop() called on ds3 at Mon Apr 27 01:38:41 2020
Module time:
	user time   =     146.65 seconds =       2.44 minutes
	system time =      69.73 seconds =       1.16 minutes
	total time  =        209 seconds =       3.48 minutes
Total time:
	user time   =     146.65 seconds =       2.44 minutes
	system time =      69.73 seconds =       1.16 minutes
	total time  =        209 seconds =       3.48 minutes
                                     G D M A

                                 by Anthony Stone

                           version 2.2.06, 22 June 2011

               Distributed Multipoles from Gaussian wavefunctions

Starting at 1:38:41 on 27 Apr 2020

Using SCF density matrix from file ./SSI/SSI-125TRP-150VAL-1-dimer.test.12717.fchk

                         Distributed Multipole Analysis

Standard DMA

Positions and radii in angstrom
Multipole moments in atomic units, ea_0^k for rank k

C          x = -0.419242  y =  2.058698  z =  2.043835 angstrom
           Maximum rank =  0   Radius =  0.650 angstrom
                   Q00  =  -0.212643

C          x =  0.597758  y =  0.595698  z =  0.167835 angstrom
           Maximum rank =  0   Radius =  0.650 angstrom
                   Q00  =  -0.043671

C          x =  0.690758  y =  1.586698  z =  1.191835 angstrom
           Maximum rank =  0   Radius =  0.650 angstrom
                   Q00  =  -0.114670

C          x =  1.888758  y =  0.456698  z = -0.403165 angstrom
           Maximum rank =  0   Radius =  0.650 angstrom
                   Q00  =   0.237070

C          x =  1.979758  y =  2.014698  z =  1.198835 angstrom
           Maximum rank =  0   Radius =  0.650 angstrom
                   Q00  =   0.066589

C          x = -0.450242  y = -0.188302  z = -0.323165 angstrom
           Maximum rank =  0   Radius =  0.650 angstrom
                   Q00  =  -0.100646

C          x = -0.195242  y = -1.070302  z = -1.347165 angstrom
           Maximum rank =  0   Radius =  0.650 angstrom
                   Q00  =  -0.095487

C          x =  1.088758  y = -1.187302  z = -1.895165 angstrom
           Maximum rank =  0   Radius =  0.650 angstrom
                   Q00  =  -0.005251

C          x =  2.144758  y = -0.425302  z = -1.435165 angstrom
           Maximum rank =  0   Radius =  0.650 angstrom
                   Q00  =  -0.118836

N          x =  2.705758  y =  1.337698  z =  0.246835 angstrom
           Maximum rank =  0   Radius =  0.650 angstrom
                   Q00  =  -0.493885

H          x = -1.443242  y = -0.095302  z =  0.094835 angstrom
           Maximum rank =  0   Radius =  0.325 angstrom
                   Q00  =   0.070493

H          x = -1.001242  y = -1.677302  z = -1.732165 angstrom
           Maximum rank =  0   Radius =  0.325 angstrom
                   Q00  =   0.057084

H          x =  1.250758  y = -1.882302  z = -2.706165 angstrom
           Maximum rank =  0   Radius =  0.325 angstrom
                   Q00  =   0.061879

H          x = -0.017242  y =  2.402698  z =  2.996835 angstrom
           Maximum rank =  0   Radius =  0.325 angstrom
                   Q00  =   0.103376

H          x = -1.072242  y =  1.209698  z =  2.251835 angstrom
           Maximum rank =  0   Radius =  0.325 angstrom
                   Q00  =   0.100460

H          x =  2.370758  y =  2.781698  z =  1.854835 angstrom
           Maximum rank =  0   Radius =  0.325 angstrom
                   Q00  =   0.099601

H          x =  3.685758  y =  1.517698  z =  0.038835 angstrom
           Maximum rank =  0   Radius =  0.325 angstrom
                   Q00  =   0.217632

H          x =  3.133758  y = -0.504302  z = -1.860165 angstrom
           Maximum rank =  0   Radius =  0.325 angstrom
                   Q00  =   0.072785

H          x = -1.010873  y =  2.859568  z =  1.576305 angstrom
           Maximum rank =  0   Radius =  0.325 angstrom
                   Q00  =   0.098277

C          x = -3.714242  y = -2.016302  z =  0.167835 angstrom
           Maximum rank =  0   Radius =  0.650 angstrom
                   Q00  =  -0.245328

C          x = -5.057242  y = -2.737302  z =  0.076835 angstrom
           Maximum rank =  0   Radius =  0.650 angstrom
                   Q00  =  -0.231521

H          x = -3.723242  y = -1.310302  z =  0.997835 angstrom
           Maximum rank =  0   Radius =  0.325 angstrom
                   Q00  =   0.076674

H          x = -2.920242  y = -2.745302  z =  0.332835 angstrom
           Maximum rank =  0   Radius =  0.325 angstrom
                   Q00  =   0.083343

H          x = -3.498242  y = -1.488302  z = -0.760165 angstrom
           Maximum rank =  0   Radius =  0.325 angstrom
                   Q00  =   0.077612

H          x = -5.020242  y = -3.376302  z = -0.804165 angstrom
           Maximum rank =  0   Radius =  0.325 angstrom
                   Q00  =   0.077700

H          x = -5.892509  y = -2.029655  z = -0.030715 angstrom
           Maximum rank =  0   Radius =  0.325 angstrom
                   Q00  =   0.080482

H          x = -5.223176  y = -3.385951  z =  0.949605 angstrom
           Maximum rank =  0   Radius =  0.325 angstrom
                   Q00  =   0.080883

Total multipoles referred to origin at
           x =   0.000000,  y =    0.000000,  z =    0.000000 angstrom
                   Q00  =  -0.000000

Finished at 1:38:42 on 27 Apr 2020

  DMA results are available in the Python driver through the
	  variable('DMA DISTRIBUTED MULTIPOLES')
  and
	  variable('DMA TOTAL MULTIPOLES')
  commands.

    Psi4 stopped on: Monday, 27 April 2020 01:38AM
    Psi4 wall time for execution: 0:03:29.09

*** Psi4 exiting successfully. Buy a developer a beer!
