                               Psi4 1.3.2 release

  ==> Input File <==

--------------------------------------------------------------------------
import numpy as np
set {scf_type pk
basis cc-pvdz
d_convergence 10
gdma_switch   0
gdma_limit    0
gdma_origin   [ 0.0,  0.0,  0.0 ]
}
molecule test {
    units Angstrom
    1 1
    --
    1 1
    C                3.039060077990247     0.512077876477363    -1.524235155858932
    C                0.759060077990247     0.436077876477364    -0.492235155858932
    N               -0.067939922009753     0.897077876477364     0.425764844141068
    N                2.001060077990247     0.905077876477363    -0.552235155858932
    N                0.335060077990247    -0.490922123522637    -1.332235155858932
    H                0.233060077990247     1.617077876477364     1.064764844141068
    H               -1.019939922009753     0.559077876477364     0.474764844141068
    H                2.256060077990246     1.612077876477364     0.122764844141068
    H                0.954060077990247    -0.843922123522636    -2.042235155858932
    H               -0.630939922009753    -0.778922123522637    -1.342235155858932
    H                3.795060077990247     1.301077876477364    -1.536235155858932
    H                2.626060077990247     0.450077876477364    -2.533235155858932
    H                3.535989077990247    -0.434312123522636    -1.264625155858932
    C               -2.714939922009753    -1.376922123522636     2.260764844141068
    O               -2.804939922009753    -0.746922123522636     0.985764844141068
    H               -3.553939922009753    -0.131922123522636     1.023764844141068
    H               -3.711939922009753    -1.460922123522636     2.694764844141068
    H               -2.287549922009753    -2.380642123522636     2.119744844141068
    H               -2.091679922009754    -0.768042123522636     2.932184844141068

}
e, wfn = energy('scf', return_wfn=True)
gdma(wfn)
dmavals = variable('DMA DISTRIBUTED MULTIPOLES')
charges = np.array(dmavals)
print(charges)
np.save('SSI-050ARG-054THR-1-dimer.npy', np.array(charges))--------------------------------------------------------------------------

*** tstart() called on ds3
*** at Mon Apr 27 23:52:34 2020

   => Loading Basis Set <=

    Name: CC-PVDZ
    Role: ORBITAL
    Keyword: BASIS
    atoms 1-2, 14     entry C          line   138 file /theoryfs2/ds/metcalf/miniconda2/envs/tf2gpu/share/psi4/basis/cc-pvdz.gbs
    atoms 3-5         entry N          line   168 file /theoryfs2/ds/metcalf/miniconda2/envs/tf2gpu/share/psi4/basis/cc-pvdz.gbs
    atoms 6-13, 16-19 entry H          line    22 file /theoryfs2/ds/metcalf/miniconda2/envs/tf2gpu/share/psi4/basis/cc-pvdz.gbs
    atoms 15          entry O          line   198 file /theoryfs2/ds/metcalf/miniconda2/envs/tf2gpu/share/psi4/basis/cc-pvdz.gbs

         ---------------------------------------------------------
                                   SCF
               by Justin Turney, Rob Parrish, Andy Simmonett
                          and Daniel G. A. Smith
                              RHF Reference
                        1 Threads,    500 MiB Core
         ---------------------------------------------------------

  ==> Geometry <==

    Molecular point group: c1
    Full point group: C1

    Geometry (in Angstrom), charge = 1, multiplicity = 1:

       Center              X                  Y                   Z               Mass
    ------------   -----------------  -----------------  -----------------  -----------------
         C            3.039060077990     0.512077876477    -1.524235155859    12.000000000000
         C            0.759060077990     0.436077876477    -0.492235155859    12.000000000000
         N           -0.067939922010     0.897077876477     0.425764844141    14.003074004430
         N            2.001060077990     0.905077876477    -0.552235155859    14.003074004430
         N            0.335060077990    -0.490922123523    -1.332235155859    14.003074004430
         H            0.233060077990     1.617077876477     1.064764844141     1.007825032230
         H           -1.019939922010     0.559077876477     0.474764844141     1.007825032230
         H            2.256060077990     1.612077876477     0.122764844141     1.007825032230
         H            0.954060077990    -0.843922123523    -2.042235155859     1.007825032230
         H           -0.630939922010    -0.778922123523    -1.342235155859     1.007825032230
         H            3.795060077990     1.301077876477    -1.536235155859     1.007825032230
         H            2.626060077990     0.450077876477    -2.533235155859     1.007825032230
         H            3.535989077990    -0.434312123523    -1.264625155859     1.007825032230
         C           -2.714939922010    -1.376922123523     2.260764844141    12.000000000000
         O           -2.804939922010    -0.746922123523     0.985764844141    15.994914619570
         H           -3.553939922010    -0.131922123523     1.023764844141     1.007825032230
         H           -3.711939922010    -1.460922123523     2.694764844141     1.007825032230
         H           -2.287549922010    -2.380642123523     2.119744844141     1.007825032230
         H           -2.091679922010    -0.768042123523     2.932184844141     1.007825032230

  Running in c1 symmetry.

  Rotational constants: A =      0.21556  B =      0.02509  C =      0.02394 [cm^-1]
  Rotational constants: A =   6462.44732  B =    752.30858  C =    717.61664 [MHz]
  Nuclear repulsion =  315.984329448661697

  Charge       = 1
  Multiplicity = 1
  Electrons    = 58
  Nalpha       = 29
  Nbeta        = 29

  ==> Algorithm <==

  SCF Algorithm Type is PK.
  DIIS enabled.
  MOM disabled.
  Fractional occupation disabled.
  Guess Type is SAD.
  Energy threshold   = 1.00e-06
  Density threshold  = 1.00e-10
  Integral threshold = 0.00e+00

  ==> Primary Basis <==

  Basis Set: CC-PVDZ
    Blend: CC-PVDZ
    Number of shells: 78
    Number of basis function: 158
    Number of Cartesian functions: 165
    Spherical Harmonics?: true
    Max angular momentum: 2

  ==> Pre-Iterations <==

   -------------------------------------------------------
    Irrep   Nso     Nmo     Nalpha   Nbeta   Ndocc  Nsocc
   -------------------------------------------------------
     A        158     158       0       0       0       0
   -------------------------------------------------------
    Total     158     158      29      29      29       0
   -------------------------------------------------------

  ==> Integral Setup <==

  Using integral reordering PK algorithm.
  Sizing the integral batches needed.
  Building batch lookup table.
   Calculation information:
      Number of atoms:                  19
      Number of AO shells:              78
      Number of primitives:            214
      Number of atomic orbitals:       165
      Number of basis functions:       158

      Integral cutoff                 1.00e-12
      Number of threads:                 1

	Batch   1 pq = [       0,    9405] index = [             0,44231715] size =     44231715
	Batch   2 pq = [    9405,   12561] index = [      44231715,78895641] size =     34663926
  Task number: 8
  Buffer size: 11059200
  Buffer per thread: 2
  We computed 3762359 shell quartets total.
  Whereas there are 4747821 unique shell quartets.

  ==> DiskJK: Disk-Based J/K Matrices <==

    J tasked:                  Yes
    K tasked:                  Yes
    wK tasked:                  No
    Memory [MiB]:              375
    Schwarz Cutoff:          1E-12

    OpenMP threads:              1

  Minimum eigenvalue in the overlap matrix is 3.9721668982E-03.
  Using Symmetric Orthogonalization.

  SCF Guess: Superposition of Atomic Densities via on-the-fly atomic UHF.

  ==> Iterations <==

                        Total Energy        Delta E     RMS |[F,P]|

   @RHF iter SAD:  -357.79910287340755   -3.57799e+02   0.00000e+00
   @RHF iter   1:  -358.47390827749859   -6.74805e-01   3.60336e-03 DIIS
   @RHF iter   2:  -358.62397710633491   -1.50069e-01   1.55392e-03 DIIS
   @RHF iter   3:  -358.64861943885478   -2.46423e-02   3.79281e-04 DIIS
   @RHF iter   4:  -358.65096192443576   -2.34249e-03   9.51748e-05 DIIS
   @RHF iter   5:  -358.65109038876773   -1.28464e-04   2.46741e-05 DIIS
   @RHF iter   6:  -358.65110327899714   -1.28902e-05   6.96506e-06 DIIS
   @RHF iter   7:  -358.65110442579447   -1.14680e-06   1.89677e-06 DIIS
   @RHF iter   8:  -358.65110452345760   -9.76631e-08   5.93152e-07 DIIS
   @RHF iter   9:  -358.65110453114937   -7.69177e-09   9.30348e-08 DIIS
   @RHF iter  10:  -358.65110453139732   -2.47951e-10   3.28407e-08 DIIS
   @RHF iter  11:  -358.65110453142194   -2.46132e-11   9.32974e-09 DIIS
   @RHF iter  12:  -358.65110453142466   -2.72848e-12   2.82621e-09 DIIS
   @RHF iter  13:  -358.65110453142393    7.38964e-13   1.21561e-09 DIIS
   @RHF iter  14:  -358.65110453142540   -1.47793e-12   3.11245e-10 DIIS
   @RHF iter  15:  -358.65110453142495    4.54747e-13   7.82236e-11 DIIS
  Energy and wave function converged.

  ==> Post-Iterations <==

    Orbital Energies [Eh]
    ---------------------

    Doubly Occupied:

       1A    -20.687005     2A    -15.777289     3A    -15.775613
       4A    -15.768855     5A    -11.577895     6A    -11.436512
       7A    -11.392243     8A     -1.531048     9A     -1.481136
      10A     -1.389247    11A     -1.376312    12A     -1.132042
      13A     -1.036799    14A     -1.027225    15A     -0.964339
      16A     -0.924828    17A     -0.848608    18A     -0.841138
      19A     -0.812567    20A     -0.808935    21A     -0.783894
      22A     -0.736971    23A     -0.733745    24A     -0.714913
      25A     -0.710567    26A     -0.621815    27A     -0.602765
      28A     -0.576413    29A     -0.570837

    Virtual:

      30A      0.003940    31A      0.035387    32A      0.036708
      33A      0.047359    34A      0.071451    35A      0.081690
      36A      0.111236    37A      0.118547    38A      0.130487
      39A      0.134238    40A      0.140972    41A      0.166008
      42A      0.182257    43A      0.215415    44A      0.250071
      45A      0.288544    46A      0.340294    47A      0.345364
      48A      0.454733    49A      0.472074    50A      0.506930
      51A      0.522884    52A      0.526085    53A      0.538563
      54A      0.543223    55A      0.548789    56A      0.565771
      57A      0.584552    58A      0.604759    59A      0.682889
      60A      0.698110    61A      0.705350    62A      0.712418
      63A      0.720227    64A      0.747066    65A      0.754856
      66A      0.760033    67A      0.773932    68A      0.780860
      69A      0.818457    70A      0.824535    71A      0.852704
      72A      0.869899    73A      0.918488    74A      0.928108
      75A      0.956748    76A      0.996070    77A      1.009677
      78A      1.043163    79A      1.058167    80A      1.078048
      81A      1.124302    82A      1.131981    83A      1.151620
      84A      1.164702    85A      1.201220    86A      1.211925
      87A      1.233501    88A      1.279011    89A      1.300142
      90A      1.343805    91A      1.413473    92A      1.473073
      93A      1.489178    94A      1.507119    95A      1.524369
      96A      1.542973    97A      1.549498    98A      1.561531
      99A      1.564185   100A      1.629821   101A      1.676611
     102A      1.702462   103A      1.733379   104A      1.739532
     105A      1.746430   106A      1.751435   107A      1.758442
     108A      1.786388   109A      1.792550   110A      1.813838
     111A      1.819971   112A      1.836995   113A      1.850531
     114A      1.854774   115A      1.905309   116A      1.958357
     117A      1.990281   118A      2.002191   119A      2.038395
     120A      2.053994   121A      2.134459   122A      2.151705
     123A      2.172539   124A      2.180032   125A      2.235374
     126A      2.261039   127A      2.269865   128A      2.283566
     129A      2.295723   130A      2.340083   131A      2.346252
     132A      2.362165   133A      2.383737   134A      2.451713
     135A      2.466858   136A      2.541822   137A      2.590873
     138A      2.602273   139A      2.627274   140A      2.644051
     141A      2.645509   142A      2.661594   143A      2.717556
     144A      2.772388   145A      2.794517   146A      2.829479
     147A      2.843443   148A      2.895205   149A      3.064995
     150A      3.100791   151A      3.129841   152A      3.182170
     153A      3.241372   154A      3.315587   155A      3.452010
     156A      3.573939   157A      3.663749   158A      3.947689

    Final Occupation by Irrep:
              A
    DOCC [    29 ]

  @RHF Final Energy:  -358.65110453142495

   => Energetics <=

    Nuclear Repulsion Energy =            315.9843294486616969
    One-Electron Energy =               -1103.9877558858029261
    Two-Electron Energy =                 429.3523219057162805
    Total Energy =                       -358.6511045314249486

Computation Completed

Properties will be evaluated at   0.000000,   0.000000,   0.000000 [a0]

Properties computed using the SCF density matrix

  Nuclear Dipole Moment: [e a0]
     X:     0.0777      Y:    -1.1879      Z:     1.6160

  Electronic Dipole Moment: [e a0]
     X:     0.8513      Y:     2.0304      Z:    -1.9677

  Dipole Moment: [e a0]
     X:     0.9290      Y:     0.8425      Z:    -0.3517     Total:     1.3025

  Dipole Moment: [D]
     X:     2.3612      Y:     2.1414      Z:    -0.8939     Total:     3.3106

*** tstop() called on ds3 at Mon Apr 27 23:53:17 2020
Module time:
	user time   =      26.09 seconds =       0.43 minutes
	system time =      11.18 seconds =       0.19 minutes
	total time  =         43 seconds =       0.72 minutes
Total time:
	user time   =      26.09 seconds =       0.43 minutes
	system time =      11.18 seconds =       0.19 minutes
	total time  =         43 seconds =       0.72 minutes
                                     G D M A

                                 by Anthony Stone

                           version 2.2.06, 22 June 2011

               Distributed Multipoles from Gaussian wavefunctions

Starting at 23:53:17 on 27 Apr 2020

Using SCF density matrix from file ./SSI/SSI-050ARG-054THR-1-dimer.test.4398.fchk

                         Distributed Multipole Analysis

Standard DMA

Positions and radii in angstrom
Multipole moments in atomic units, ea_0^k for rank k

C          x =  3.039060  y =  0.512078  z = -1.524235 angstrom
           Maximum rank =  0   Radius =  0.650 angstrom
                   Q00  =  -0.131889

C          x =  0.759060  y =  0.436078  z = -0.492235 angstrom
           Maximum rank =  0   Radius =  0.650 angstrom
                   Q00  =   1.085415

N          x = -0.067940  y =  0.897078  z =  0.425765 angstrom
           Maximum rank =  0   Radius =  0.650 angstrom
                   Q00  =  -0.588671

N          x =  2.001060  y =  0.905078  z = -0.552235 angstrom
           Maximum rank =  0   Radius =  0.650 angstrom
                   Q00  =  -0.506110

N          x =  0.335060  y = -0.490922  z = -1.332235 angstrom
           Maximum rank =  0   Radius =  0.650 angstrom
                   Q00  =  -0.582969

H          x =  0.233060  y =  1.617078  z =  1.064765 angstrom
           Maximum rank =  0   Radius =  0.325 angstrom
                   Q00  =   0.255858

H          x = -1.019940  y =  0.559078  z =  0.474765 angstrom
           Maximum rank =  0   Radius =  0.325 angstrom
                   Q00  =   0.273376

H          x =  2.256060  y =  1.612078  z =  0.122765 angstrom
           Maximum rank =  0   Radius =  0.325 angstrom
                   Q00  =   0.229000

H          x =  0.954060  y = -0.843922  z = -2.042235 angstrom
           Maximum rank =  0   Radius =  0.325 angstrom
                   Q00  =   0.263764

H          x = -0.630940  y = -0.778922  z = -1.342235 angstrom
           Maximum rank =  0   Radius =  0.325 angstrom
                   Q00  =   0.276313

H          x =  3.795060  y =  1.301078  z = -1.536235 angstrom
           Maximum rank =  0   Radius =  0.325 angstrom
                   Q00  =   0.162383

H          x =  2.626060  y =  0.450078  z = -2.533235 angstrom
           Maximum rank =  0   Radius =  0.325 angstrom
                   Q00  =   0.116316

H          x =  3.535989  y = -0.434312  z = -1.264625 angstrom
           Maximum rank =  0   Radius =  0.325 angstrom
                   Q00  =   0.128598

C          x = -2.714940  y = -1.376922  z =  2.260765 angstrom
           Maximum rank =  0   Radius =  0.650 angstrom
                   Q00  =  -0.068908

O          x = -2.804940  y = -0.746922  z =  0.985765 angstrom
           Maximum rank =  0   Radius =  0.650 angstrom
                   Q00  =  -0.636991

H          x = -3.553940  y = -0.131922  z =  1.023765 angstrom
           Maximum rank =  0   Radius =  0.325 angstrom
                   Q00  =   0.416348

H          x = -3.711940  y = -1.460922  z =  2.694765 angstrom
           Maximum rank =  0   Radius =  0.325 angstrom
                   Q00  =   0.107481

H          x = -2.287550  y = -2.380642  z =  2.119745 angstrom
           Maximum rank =  0   Radius =  0.325 angstrom
                   Q00  =   0.126283

H          x = -2.091680  y = -0.768042  z =  2.932185 angstrom
           Maximum rank =  0   Radius =  0.325 angstrom
                   Q00  =   0.074405

Total multipoles referred to origin at
           x =   0.000000,  y =    0.000000,  z =    0.000000 angstrom
                   Q00  =   1.000000

Finished at 23:53:17 on 27 Apr 2020

  DMA results are available in the Python driver through the
	  variable('DMA DISTRIBUTED MULTIPOLES')
  and
	  variable('DMA TOTAL MULTIPOLES')
  commands.

    Psi4 stopped on: Monday, 27 April 2020 11:53PM
    Psi4 wall time for execution: 0:00:43.64

*** Psi4 exiting successfully. Buy a developer a beer!
